   0.00000000       0.00000000    
   4.99999987E-05   0.00000000    
   9.99999975E-05   0.00000000    
   1.50000007E-04   0.00000000    
   1.99999995E-04   1.84627002E-27
   2.50000012E-04   1.74559203E-26
   3.00000014E-04   8.83262780E-26
   3.49999988E-04   3.18924089E-25
   3.99999990E-04   9.21578765E-25
   4.49999992E-04   2.26270689E-24
   5.00000024E-04   4.89067216E-24
   5.49999997E-04   9.51226071E-24
   6.00000028E-04   1.68688138E-23
   6.50000002E-04   2.74470236E-23
   6.99999975E-04   4.09372930E-23
   7.50000007E-04   5.53321428E-23
   7.99999980E-04   6.55278860E-23
   8.50000011E-04   6.12745562E-23
   8.99999985E-04   2.42760805E-23
   9.50000016E-04  -7.57732580E-23
   1.00000005E-03  -2.86474219E-22
   1.04999996E-03  -6.79611420E-22
   1.09999999E-03  -1.36000418E-21
   1.15000003E-03  -2.47661733E-21
   1.20000006E-03  -4.23645034E-21
   1.24999997E-03  -6.92152102E-21
   1.30000000E-03  -1.09095736E-20
   1.35000004E-03  -1.66988944E-20
   1.39999995E-03  -2.49378104E-20
   1.44999998E-03  -3.64598887E-20
   1.50000001E-03  -5.23249382E-20
   1.55000004E-03  -7.38666600E-20
   1.59999996E-03  -1.02748363E-19
   1.64999999E-03  -1.41026669E-19
   1.70000002E-03  -1.91224150E-19
   1.75000005E-03  -2.56412962E-19
   1.79999997E-03  -3.40309316E-19
   1.85000000E-03  -4.47379755E-19
   1.90000003E-03  -5.82961482E-19
   1.94999995E-03  -7.53395740E-19
   2.00000009E-03  -9.66176320E-19
   2.05000001E-03  -1.23011890E-18
   2.09999993E-03  -1.55554561E-18
   2.15000007E-03  -1.95448262E-18
   2.19999999E-03  -2.44088984E-18
   2.24999990E-03  -3.03090784E-18
   2.30000005E-03  -3.74312752E-18
   2.34999997E-03  -4.59888267E-18
   2.40000011E-03  -5.62255755E-18
   2.45000003E-03  -6.84196033E-18
   2.49999994E-03  -8.28869798E-18
   2.55000009E-03  -9.99857212E-18
   2.60000001E-03  -1.20120315E-17
   2.64999992E-03  -1.43746289E-17
   2.70000007E-03  -1.71375627E-17
   2.74999999E-03  -2.03581970E-17
   2.79999990E-03  -2.41006698E-17
   2.85000005E-03  -2.84365173E-17
   2.89999996E-03  -3.34453441E-17
   2.95000011E-03  -3.92155443E-17
   3.00000003E-03  -4.58450098E-17
   3.04999994E-03  -5.34420483E-17
   3.10000009E-03  -6.21261940E-17
   3.15000000E-03  -7.20289819E-17
   3.19999992E-03  -8.32951620E-17
   3.25000007E-03  -9.60835529E-17
   3.29999998E-03  -1.10568094E-16
   3.34999990E-03  -1.26939071E-16
   3.40000005E-03  -1.45404177E-16
   3.44999996E-03  -1.66189969E-16
   3.50000011E-03  -1.89542879E-16
   3.55000002E-03  -2.15730795E-16
   3.59999994E-03  -2.45044461E-16
   3.65000009E-03  -2.77798881E-16
   3.70000000E-03  -3.14335144E-16
   3.74999992E-03  -3.55021710E-16
   3.80000006E-03  -4.00256155E-16
   3.84999998E-03  -4.50467050E-16
   3.89999989E-03  -5.06115897E-16
   3.94999981E-03  -5.67699110E-16
   4.00000019E-03  -6.35749472E-16
   4.05000011E-03  -7.10838255E-16
   4.10000002E-03  -7.93578286E-16
   4.14999994E-03  -8.84625169E-16
   4.19999985E-03  -9.84679295E-16
   4.25000023E-03  -1.09448875E-15
   4.30000015E-03  -1.21485235E-15
   4.35000006E-03  -1.34662071E-15
   4.39999998E-03  -1.49069995E-15
   4.44999989E-03  -1.64805305E-15
   4.49999981E-03  -1.81970333E-15
   4.55000019E-03  -2.00673710E-15
   4.60000010E-03  -2.21030622E-15
   4.65000002E-03  -2.43163212E-15
   4.69999993E-03  -2.67200609E-15
   4.74999985E-03  -2.93279441E-15
   4.80000023E-03  -3.21544062E-15
   4.85000014E-03  -3.52147023E-15
   4.90000006E-03  -3.85248965E-15
   4.94999997E-03  -4.21019336E-15
   4.99999989E-03  -4.59636542E-15
   5.04999980E-03  -5.01288371E-15
   5.10000018E-03  -5.46172138E-15
   5.15000010E-03  -5.94495283E-15
   5.20000001E-03  -6.46475366E-15
   5.24999993E-03  -7.02340492E-15
   5.29999984E-03  -7.62329907E-15
   5.35000023E-03  -8.26694246E-15
   5.40000014E-03  -8.95695668E-15
   5.45000006E-03  -9.69608017E-15
   5.49999997E-03  -1.04871742E-14
   5.54999989E-03  -1.13332297E-14
   5.59999980E-03  -1.22373654E-14
   5.65000018E-03  -1.32028321E-14
   5.70000010E-03  -1.42330199E-14
   5.75000001E-03  -1.53314522E-14
   5.79999993E-03  -1.65017993E-14
   5.84999984E-03  -1.77478729E-14
   5.90000022E-03  -1.90736370E-14
   5.95000014E-03  -2.04832031E-14
   6.00000005E-03  -2.19808387E-14
   6.04999997E-03  -2.35709618E-14
   6.09999988E-03  -2.52581549E-14
   6.14999980E-03  -2.70471596E-14
   6.20000018E-03  -2.89428854E-14
   6.25000009E-03  -3.09504043E-14
   6.30000001E-03  -3.30749561E-14
   6.34999992E-03  -3.53219414E-14
   6.39999984E-03  -3.76969438E-14
   6.45000022E-03  -4.02057165E-14
   6.50000013E-03  -4.28541852E-14
   6.55000005E-03  -4.56484554E-14
   6.59999996E-03  -4.85948087E-14
   6.64999988E-03  -5.16996893E-14
   6.69999979E-03  -5.49697312E-14
   6.75000018E-03  -5.84117444E-14
   6.80000009E-03  -6.20327018E-14
   6.85000001E-03  -6.58397626E-14
   6.89999992E-03  -6.98402585E-14
   6.94999984E-03  -7.40417113E-14
   7.00000022E-03  -7.84517782E-14
   7.05000013E-03  -8.30782857E-14
   7.10000005E-03  -8.79292638E-14
   7.14999996E-03  -9.30129116E-14
   7.19999988E-03  -9.83375368E-14
   7.24999979E-03  -1.03911657E-13
   7.30000017E-03  -1.09743913E-13
   7.35000009E-03  -1.15843113E-13
   7.40000000E-03  -1.22218181E-13
   7.44999992E-03  -1.28878258E-13
   7.49999983E-03  -1.35832507E-13
   7.55000021E-03  -1.43090265E-13
   7.60000013E-03  -1.50661005E-13
   7.65000004E-03  -1.58554281E-13
   7.69999996E-03  -1.66779757E-13
   7.74999987E-03  -1.75347258E-13
   7.79999979E-03  -1.84266651E-13
   7.84999970E-03  -1.93547828E-13
   7.89999962E-03  -2.03200792E-13
   7.95000046E-03  -2.13235598E-13
   8.00000038E-03  -2.23662370E-13
   8.05000030E-03  -2.34491192E-13
   8.10000021E-03  -2.45732200E-13
   8.15000013E-03  -2.57395532E-13
   8.20000004E-03  -2.69491352E-13
   8.24999996E-03  -2.82029744E-13
   8.29999987E-03  -2.95020789E-13
   8.34999979E-03  -3.08474410E-13
   8.39999970E-03  -3.22400554E-13
   8.44999962E-03  -3.36809113E-13
   8.50000046E-03  -3.51709737E-13
   8.55000038E-03  -3.67111994E-13
   8.60000029E-03  -3.83025290E-13
   8.65000021E-03  -3.99458895E-13
   8.70000012E-03  -4.16421780E-13
   8.75000004E-03  -4.33922727E-13
   8.79999995E-03  -4.51970275E-13
   8.84999987E-03  -4.70572799E-13
   8.89999978E-03  -4.89738241E-13
   8.94999970E-03  -5.09474190E-13
   8.99999961E-03  -5.29788073E-13
   9.05000046E-03  -5.50686721E-13
   9.10000037E-03  -5.72176583E-13
   9.15000029E-03  -5.94263787E-13
   9.20000020E-03  -6.16953862E-13
   9.25000012E-03  -6.40251795E-13
   9.30000003E-03  -6.64162085E-13
   9.34999995E-03  -6.88688852E-13
   9.39999986E-03  -7.13835349E-13
   9.44999978E-03  -7.39604124E-13
   9.49999969E-03  -7.65997346E-13
   9.54999961E-03  -7.93016315E-13
   9.60000046E-03  -8.20661464E-13
   9.65000037E-03  -8.48932415E-13
   9.70000029E-03  -8.77828301E-13
   9.75000020E-03  -9.07346951E-13
   9.80000012E-03  -9.37485549E-13
   9.85000003E-03  -9.68240137E-13
   9.89999995E-03  -9.99605889E-13
   9.94999986E-03  -1.03157684E-12
   9.99999978E-03  -1.06414584E-12
   1.00499997E-02  -1.09730486E-12
   1.00999996E-02  -1.13104437E-12
   1.01500005E-02  -1.16535362E-12
   1.02000004E-02  -1.20022102E-12
   1.02500003E-02  -1.23563334E-12
   1.03000002E-02  -1.27157551E-12
   1.03500001E-02  -1.30803181E-12
   1.04000000E-02  -1.34498467E-12
   1.04499999E-02  -1.38241502E-12
   1.04999999E-02  -1.42030214E-12
   1.05499998E-02  -1.45862359E-12
   1.05999997E-02  -1.49735541E-12
   1.06499996E-02  -1.53647212E-12
   1.07000005E-02  -1.57594597E-12
   1.07500004E-02  -1.61574757E-12
   1.08000003E-02  -1.65584560E-12
   1.08500002E-02  -1.69620665E-12
   1.09000001E-02  -1.73679593E-12
   1.09500000E-02  -1.77757581E-12
   1.09999999E-02  -1.81850672E-12
   1.10499999E-02  -1.85954680E-12
   1.10999998E-02  -1.90065260E-12
   1.11499997E-02  -1.94177790E-12
   1.11999996E-02  -1.98287372E-12
   1.12500004E-02  -2.02388974E-12
   1.13000004E-02  -2.06477196E-12
   1.13500003E-02  -2.10546467E-12
   1.14000002E-02  -2.14590975E-12
   1.14500001E-02  -2.18604583E-12
   1.15000000E-02  -2.22580981E-12
   1.15499999E-02  -2.26513491E-12
   1.15999999E-02  -2.30395173E-12
   1.16499998E-02  -2.34218873E-12
   1.16999997E-02  -2.37977086E-12
   1.17499996E-02  -2.41662007E-12
   1.18000004E-02  -2.45265592E-12
   1.18500004E-02  -2.48779469E-12
   1.19000003E-02  -2.52194966E-12
   1.19500002E-02  -2.55503062E-12
   1.20000001E-02  -2.58694498E-12
   1.20500000E-02  -2.61759624E-12
   1.20999999E-02  -2.64688488E-12
   1.21499998E-02  -2.67470768E-12
   1.21999998E-02  -2.70095946E-12
   1.22499997E-02  -2.72553117E-12
   1.22999996E-02  -2.74830961E-12
   1.23500004E-02  -2.76917920E-12
   1.24000004E-02  -2.78802003E-12
   1.24500003E-02  -2.80470959E-12
   1.25000002E-02  -2.81912080E-12
   1.25500001E-02  -2.83112401E-12
   1.26000000E-02  -2.84058541E-12
   1.26499999E-02  -2.84736861E-12
   1.26999998E-02  -2.85133289E-12
   1.27499998E-02  -2.85233382E-12
   1.27999997E-02  -2.85022396E-12
   1.28499996E-02  -2.84485174E-12
   1.29000004E-02  -2.83606255E-12
   1.29500004E-02  -2.82369744E-12
   1.30000003E-02  -2.80759422E-12
   1.30500002E-02  -2.78758787E-12
   1.31000001E-02  -2.76350947E-12
   1.31500000E-02  -2.73518664E-12
   1.31999999E-02  -2.70244222E-12
   1.32499998E-02  -2.66509623E-12
   1.32999998E-02  -2.62296565E-12
   1.33499997E-02  -2.57586400E-12
   1.33999996E-02  -2.52360025E-12
   1.34500004E-02  -2.46598141E-12
   1.35000004E-02  -2.40281146E-12
   1.35500003E-02  -2.33389003E-12
   1.36000002E-02  -2.25901351E-12
   1.36500001E-02  -2.17797460E-12
   1.37000000E-02  -2.09056297E-12
   1.37499999E-02  -1.99656632E-12
   1.37999998E-02  -1.89577000E-12
   1.38499998E-02  -1.78795347E-12
   1.38999997E-02  -1.67289414E-12
   1.39499996E-02  -1.55036823E-12
   1.40000004E-02  -1.42014872E-12
   1.40500003E-02  -1.28200651E-12
   1.41000003E-02  -1.13571002E-12
   1.41500002E-02  -9.81023747E-13
   1.42000001E-02  -8.17709886E-13
   1.42500000E-02  -6.45530070E-13
   1.42999999E-02  -4.64244203E-13
   1.43499998E-02  -2.73608312E-13
   1.43999998E-02  -7.33768921E-14
   1.44499997E-02   1.36695912E-13
   1.44999996E-02   3.56858260E-13
   1.45500004E-02   5.87359534E-13
   1.46000003E-02   8.28449559E-13
   1.46500003E-02   1.08037938E-12
   1.47000002E-02   1.34340163E-12
   1.47500001E-02   1.61776994E-12
   1.48000000E-02   1.90373758E-12
   1.48499999E-02   2.20155665E-12
   1.48999998E-02   2.51148017E-12
   1.49499997E-02   2.83376447E-12
   1.49999997E-02   3.16866281E-12
   1.50499996E-02   3.51642695E-12
   1.51000004E-02   3.87730863E-12
   1.51500003E-02   4.25155831E-12
   1.52000003E-02   4.63942556E-12
   1.52500002E-02   5.04115890E-12
   1.53000001E-02   5.45700507E-12
   1.53500000E-02   5.88720869E-12
   1.53999999E-02   6.33200957E-12
   1.54499998E-02   6.79164797E-12
   1.54999997E-02   7.26636242E-12
   1.55499997E-02   7.75638494E-12
   1.55999996E-02   8.26194581E-12
   1.56500004E-02   8.78327359E-12
   1.56999994E-02   9.32058857E-12
   1.57500003E-02   9.87411021E-12
   1.57999992E-02   1.04440545E-11
   1.58500001E-02   1.10306278E-11
   1.59000009E-02   1.16340349E-11
   1.59499999E-02   1.22544726E-11
   1.60000008E-02   1.28921344E-11
   1.60499997E-02   1.35472050E-11
   1.61000006E-02   1.42198649E-11
   1.61499996E-02   1.49102848E-11
   1.62000004E-02   1.56186297E-11
   1.62499994E-02   1.63450555E-11
   1.63000003E-02   1.70897133E-11
   1.63499992E-02   1.78527419E-11
   1.64000001E-02   1.86342747E-11
   1.64500009E-02   1.94344350E-11
   1.64999999E-02   2.02533337E-11
   1.65500008E-02   2.10910733E-11
   1.65999997E-02   2.19477492E-11
   1.66500006E-02   2.28234411E-11
   1.66999996E-02   2.37182201E-11
   1.67500004E-02   2.46321418E-11
   1.67999994E-02   2.55652565E-11
   1.68500002E-02   2.65175971E-11
   1.68999992E-02   2.74891863E-11
   1.69500001E-02   2.84800291E-11
   1.70000009E-02   2.94901187E-11
   1.70499999E-02   3.05194411E-11
   1.71000008E-02   3.15679531E-11
   1.71499997E-02   3.26356095E-11
   1.72000006E-02   3.37223444E-11
   1.72499996E-02   3.48280779E-11
   1.73000004E-02   3.59527130E-11
   1.73499994E-02   3.70961317E-11
   1.74000002E-02   3.82581987E-11
   1.74499992E-02   3.94387717E-11
   1.75000001E-02   4.06376738E-11
   1.75500009E-02   4.18547280E-11
   1.75999999E-02   4.30897228E-11
   1.76500008E-02   4.43424325E-11
   1.76999997E-02   4.56126144E-11
   1.77500006E-02   4.69000012E-11
   1.77999996E-02   4.82043086E-11
   1.78500004E-02   4.95252311E-11
   1.78999994E-02   5.08624323E-11
   1.79500002E-02   5.22155687E-11
   1.79999992E-02   5.35842620E-11
   1.80500001E-02   5.49681169E-11
   1.81000009E-02   5.63667134E-11
   1.81499999E-02   5.77796075E-11
   1.82000007E-02   5.92063273E-11
   1.82499997E-02   6.06463837E-11
   1.83000006E-02   6.20992563E-11
   1.83499996E-02   6.35644037E-11
   1.84000004E-02   6.50412640E-11
   1.84499994E-02   6.65292405E-11
   1.85000002E-02   6.80277015E-11
   1.85499992E-02   6.95360158E-11
   1.86000001E-02   7.10534895E-11
   1.86500009E-02   7.25794286E-11
   1.86999999E-02   7.41131045E-11
   1.87500007E-02   7.56537610E-11
   1.87999997E-02   7.72006070E-11
   1.88500006E-02   7.87528237E-11
   1.88999996E-02   8.03095646E-11
   1.89500004E-02   8.18699691E-11
   1.89999994E-02   8.34331215E-11
   1.90500002E-02   8.49980919E-11
   1.90999992E-02   8.65639158E-11
   1.91500001E-02   8.81296008E-11
   1.92000009E-02   8.96941271E-11
   1.92499999E-02   9.12564330E-11
   1.93000007E-02   9.28154359E-11
   1.93499997E-02   9.43700257E-11
   1.94000006E-02   9.59190505E-11
   1.94499996E-02   9.74613376E-11
   1.95000004E-02   9.89956589E-11
   1.95499994E-02   1.00520786E-10
   1.96000002E-02   1.02035450E-10
   1.96499992E-02   1.03538338E-10
   1.97000001E-02   1.05028111E-10
   1.97500009E-02   1.06503410E-10
   1.97999999E-02   1.07962840E-10
   1.98500007E-02   1.09404957E-10
   1.98999997E-02   1.10828312E-10
   1.99500006E-02   1.12231412E-10
   1.99999996E-02   1.13612716E-10
   2.00500004E-02   1.14970686E-10
   2.00999994E-02   1.16303731E-10
   2.01500002E-02   1.17610227E-10
   2.01999992E-02   1.18888538E-10
   2.02500001E-02   1.20136970E-10
   2.03000009E-02   1.21353830E-10
   2.03499999E-02   1.22537369E-10
   2.04000007E-02   1.23685853E-10
   2.04499997E-02   1.24797436E-10
   2.05000006E-02   1.25870314E-10
   2.05499995E-02   1.26902627E-10
   2.06000004E-02   1.27892502E-10
   2.06499994E-02   1.28838037E-10
   2.07000002E-02   1.29737263E-10
   2.07499992E-02   1.30588249E-10
   2.08000001E-02   1.31388983E-10
   2.08500009E-02   1.32137468E-10
   2.08999999E-02   1.32831648E-10
   2.09500007E-02   1.33469458E-10
   2.09999997E-02   1.34048814E-10
   2.10500006E-02   1.34567593E-10
   2.10999995E-02   1.35023673E-10
   2.11500004E-02   1.35414888E-10
   2.11999994E-02   1.35739073E-10
   2.12500002E-02   1.35994035E-10
   2.12999992E-02   1.36177541E-10
   2.13500001E-02   1.36287356E-10
   2.14000009E-02   1.36321232E-10
   2.14499999E-02   1.36276879E-10
   2.15000007E-02   1.36152048E-10
   2.15499997E-02   1.35944422E-10
   2.16000006E-02   1.35651698E-10
   2.16499995E-02   1.35271530E-10
   2.17000004E-02   1.34801587E-10
   2.17499994E-02   1.34239522E-10
   2.18000002E-02   1.33582992E-10
   2.18499992E-02   1.32829608E-10
   2.19000001E-02   1.31977013E-10
   2.19500009E-02   1.31022804E-10
   2.19999999E-02   1.29964622E-10
   2.20500007E-02   1.28800068E-10
   2.20999997E-02   1.27526795E-10
   2.21500006E-02   1.26142374E-10
   2.21999995E-02   1.24644420E-10
   2.22500004E-02   1.23030572E-10
   2.22999994E-02   1.21298416E-10
   2.23500002E-02   1.19445606E-10
   2.23999992E-02   1.17469770E-10
   2.24500000E-02   1.15368555E-10
   2.25000009E-02   1.13139609E-10
   2.25499999E-02   1.10780607E-10
   2.26000007E-02   1.08289204E-10
   2.26499997E-02   1.05663110E-10
   2.27000006E-02   1.02900036E-10
   2.27499995E-02   9.99976907E-11
   2.28000004E-02   9.69538339E-11
   2.28499994E-02   9.37662448E-11
   2.29000002E-02   9.04327030E-11
   2.29499992E-02   8.69510505E-11
   2.30000000E-02   8.33191294E-11
   2.30500009E-02   7.95348162E-11
   2.30999999E-02   7.55960156E-11
   2.31500007E-02   7.15006873E-11
   2.31999997E-02   6.72467984E-11
   2.32500006E-02   6.28323851E-11
   2.32999995E-02   5.82554976E-11
   2.33500004E-02   5.35142243E-11
   2.33999994E-02   4.86067228E-11
   2.34500002E-02   4.35311752E-11
   2.34999992E-02   3.82858155E-11
   2.35500000E-02   3.28689263E-11
   2.36000009E-02   2.72788719E-11
   2.36499999E-02   2.15140475E-11
   2.37000007E-02   1.55729058E-11
   2.37499997E-02   9.45394978E-12
   2.38000005E-02   3.15574086E-12
   2.38499995E-02  -3.32307966E-12
   2.39000004E-02  -9.98381326E-12
   2.39499994E-02  -1.68276920E-11
   2.40000002E-02  -2.38558739E-11
   2.40499992E-02  -3.10694456E-11
   2.41000000E-02  -3.84694152E-11
   2.41500009E-02  -4.60567209E-11
   2.41999999E-02  -5.38322234E-11
   2.42500007E-02  -6.17966928E-11
   2.42999997E-02  -6.99508368E-11
   2.43500005E-02  -7.82952661E-11
   2.43999995E-02  -8.68304872E-11
   2.44500004E-02  -9.55569374E-11
   2.44999994E-02  -1.04474950E-10
   2.45500002E-02  -1.13584760E-10
   2.45999992E-02  -1.22886507E-10
   2.46500000E-02  -1.32380232E-10
   2.47000009E-02  -1.42065887E-10
   2.47499999E-02  -1.51943305E-10
   2.48000007E-02  -1.62012209E-10
   2.48499997E-02  -1.72272252E-10
   2.49000005E-02  -1.82722906E-10
   2.49499995E-02  -1.93363589E-10
   2.50000004E-02  -2.04193606E-10
   2.50499994E-02  -2.15212098E-10
   2.51000002E-02  -2.26418093E-10
   2.51499992E-02  -2.37810549E-10
   2.52000000E-02  -2.49388260E-10
   2.52500009E-02  -2.61149879E-10
   2.52999999E-02  -2.73093964E-10
   2.53500007E-02  -2.85218932E-10
   2.53999997E-02  -2.97523062E-10
   2.54500005E-02  -3.10004494E-10
   2.54999995E-02  -3.22661314E-10
   2.55500004E-02  -3.35491357E-10
   2.55999994E-02  -3.48492346E-10
   2.56500002E-02  -3.61661867E-10
   2.56999992E-02  -3.74997422E-10
   2.57500000E-02  -3.88496291E-10
   2.58000009E-02  -4.02155670E-10
   2.58499999E-02  -4.15972562E-10
   2.59000007E-02  -4.29943803E-10
   2.59499997E-02  -4.44066145E-10
   2.60000005E-02  -4.58336119E-10
   2.60499995E-02  -4.72750172E-10
   2.61000004E-02  -4.87304530E-10
   2.61499994E-02  -5.01995334E-10
   2.62000002E-02  -5.16818477E-10
   2.62499992E-02  -5.31769850E-10
   2.63000000E-02  -5.46844903E-10
   2.63500009E-02  -5.62039193E-10
   2.63999999E-02  -5.77348003E-10
   2.64500007E-02  -5.92766558E-10
   2.64999997E-02  -6.08289696E-10
   2.65500005E-02  -6.23912311E-10
   2.65999995E-02  -6.39628961E-10
   2.66500004E-02  -6.55434262E-10
   2.66999993E-02  -6.71322387E-10
   2.67500002E-02  -6.87287505E-10
   2.67999992E-02  -7.03323677E-10
   2.68500000E-02  -7.19424631E-10
   2.69000009E-02  -7.35584038E-10
   2.69499999E-02  -7.51795348E-10
   2.70000007E-02  -7.68051789E-10
   2.70499997E-02  -7.84346588E-10
   2.71000005E-02  -8.00672695E-10
   2.71499995E-02  -8.17022894E-10
   2.72000004E-02  -8.33389913E-10
   2.72499993E-02  -8.49766035E-10
   2.73000002E-02  -8.66143657E-10
   2.73499992E-02  -8.82514894E-10
   2.74000000E-02  -8.98871699E-10
   2.74500009E-02  -9.15205911E-10
   2.74999999E-02  -9.31509092E-10
   2.75500007E-02  -9.47772638E-10
   2.75999997E-02  -9.63988001E-10
   2.76500005E-02  -9.80146408E-10
   2.76999995E-02  -9.96238536E-10
   2.77500004E-02  -1.01225550E-09
   2.77999993E-02  -1.02818776E-09
   2.78500002E-02  -1.04402587E-09
   2.78999992E-02  -1.05976028E-09
   2.79500000E-02  -1.07538112E-09
   2.80000009E-02  -1.09087850E-09
   2.80499998E-02  -1.10624232E-09
   2.81000007E-02  -1.12146237E-09
   2.81499997E-02  -1.13652820E-09
   2.82000005E-02  -1.15142929E-09
   2.82499995E-02  -1.16615506E-09
   2.83000004E-02  -1.18069443E-09
   2.83499993E-02  -1.19503685E-09
   2.84000002E-02  -1.20917099E-09
   2.84499992E-02  -1.22308574E-09
   2.85000000E-02  -1.23676980E-09
   2.85500009E-02  -1.25021171E-09
   2.85999998E-02  -1.26339983E-09
   2.86500007E-02  -1.27632249E-09
   2.86999997E-02  -1.28896815E-09
   2.87500005E-02  -1.30132460E-09
   2.87999995E-02  -1.31337996E-09
   2.88500004E-02  -1.32512212E-09
   2.88999993E-02  -1.33653888E-09
   2.89500002E-02  -1.34761802E-09
   2.89999992E-02  -1.35834699E-09
   2.90500000E-02  -1.36871348E-09
   2.91000009E-02  -1.37870482E-09
   2.91499998E-02  -1.38830847E-09
   2.92000007E-02  -1.39751155E-09
   2.92499997E-02  -1.40630152E-09
   2.93000005E-02  -1.41466550E-09
   2.93499995E-02  -1.42259060E-09
   2.94000003E-02  -1.43006385E-09
   2.94499993E-02  -1.43707235E-09
   2.95000002E-02  -1.44360313E-09
   2.95499992E-02  -1.44964296E-09
   2.96000000E-02  -1.45517887E-09
   2.96500009E-02  -1.46019774E-09
   2.96999998E-02  -1.46468648E-09
   2.97500007E-02  -1.46863188E-09
   2.97999997E-02  -1.47202084E-09
   2.98500005E-02  -1.47484003E-09
   2.98999995E-02  -1.47707657E-09
   2.99500003E-02  -1.47871715E-09
   2.99999993E-02  -1.47974877E-09
   3.00500002E-02  -1.48015833E-09
   3.00999992E-02  -1.47993284E-09
   3.01500000E-02  -1.47905932E-09
   3.02000009E-02  -1.47752466E-09
   3.02499998E-02  -1.47531587E-09
   3.03000007E-02  -1.47242030E-09
   3.03499997E-02  -1.46882506E-09
   3.04000005E-02  -1.46451740E-09
   3.04499995E-02  -1.45948453E-09
   3.05000003E-02  -1.45371415E-09
   3.05499993E-02  -1.44719381E-09
   3.06000002E-02  -1.43991108E-09
   3.06499992E-02  -1.43185375E-09
   3.07000000E-02  -1.42300960E-09
   3.07500008E-02  -1.41336676E-09
   3.07999998E-02  -1.40291334E-09
   3.08500007E-02  -1.39163758E-09
   3.08999997E-02  -1.37952783E-09
   3.09500005E-02  -1.36657274E-09
   3.09999995E-02  -1.35276113E-09
   3.10500003E-02  -1.33808176E-09
   3.10999993E-02  -1.32252387E-09
   3.11500002E-02  -1.30607658E-09
   3.11999992E-02  -1.28872946E-09
   3.12500000E-02  -1.27047217E-09
   3.13000008E-02  -1.25129462E-09
   3.13500017E-02  -1.23118682E-09
   3.13999988E-02  -1.21013932E-09
   3.14499997E-02  -1.18814258E-09
   3.15000005E-02  -1.16518739E-09
   3.15500014E-02  -1.14126497E-09
   3.15999985E-02  -1.11636655E-09
   3.16499993E-02  -1.09048370E-09
   3.17000002E-02  -1.06360842E-09
   3.17500010E-02  -1.03573283E-09
   3.18000019E-02  -1.00684949E-09
   3.18499990E-02  -9.76951187E-10
   3.18999998E-02  -9.46030809E-10
   3.19500007E-02  -9.14081921E-10
   3.20000015E-02  -8.81098361E-10
   3.20499986E-02  -8.47074133E-10
   3.20999995E-02  -8.12003575E-10
   3.21500003E-02  -7.75881637E-10
   3.22000012E-02  -7.38703432E-10
   3.22499983E-02  -7.00464409E-10
   3.22999991E-02  -6.61160460E-10
   3.23500000E-02  -6.20787866E-10
   3.24000008E-02  -5.79343407E-10
   3.24500017E-02  -5.36824085E-10
   3.24999988E-02  -4.93227459E-10
   3.25499997E-02  -4.48551390E-10
   3.26000005E-02  -4.02794187E-10
   3.26500013E-02  -3.55954710E-10
   3.26999985E-02  -3.08032100E-10
   3.27499993E-02  -2.59026051E-10
   3.28000002E-02  -2.08936660E-10
   3.28500010E-02  -1.57764524E-10
   3.29000019E-02  -1.05510684E-10
   3.29499990E-02  -5.21767178E-11
   3.29999998E-02   2.23534711E-12
   3.30500007E-02   5.77229965E-11
   3.31000015E-02   1.14283229E-10
   3.31499986E-02   1.71912498E-10
   3.31999995E-02   2.30606756E-10
   3.32500003E-02   2.90361457E-10
   3.33000012E-02   3.51171509E-10
   3.33499983E-02   4.13031304E-10
   3.33999991E-02   4.75934736E-10
   3.34500000E-02   5.39874978E-10
   3.35000008E-02   6.04844841E-10
   3.35500017E-02   6.70836608E-10
   3.35999988E-02   7.37841732E-10
   3.36499996E-02   8.05851386E-10
   3.37000005E-02   8.74856021E-10
   3.37500013E-02   9.44845535E-10
   3.37999985E-02   1.01580933E-09
   3.38499993E-02   1.08773612E-09
   3.39000002E-02   1.16061394E-09
   3.39500010E-02   1.23443045E-09
   3.40000018E-02   1.30917255E-09
   3.40499990E-02   1.38482670E-09
   3.40999998E-02   1.46137846E-09
   3.41500007E-02   1.53881308E-09
   3.42000015E-02   1.61711511E-09
   3.42499986E-02   1.69626846E-09
   3.42999995E-02   1.77625636E-09
   3.43500003E-02   1.85706162E-09
   3.44000012E-02   1.93866612E-09
   3.44499983E-02   2.02105133E-09
   3.44999991E-02   2.10419793E-09
   3.45500000E-02   2.18808593E-09
   3.46000008E-02   2.27269514E-09
   3.46500017E-02   2.35800424E-09
   3.46999988E-02   2.44399168E-09
   3.47499996E-02   2.53063481E-09
   3.48000005E-02   2.61791078E-09
   3.48500013E-02   2.70579603E-09
   3.48999985E-02   2.79426593E-09
   3.49499993E-02   2.88329582E-09
   3.50000001E-02   2.97286018E-09
   3.50500010E-02   3.06293257E-09
   3.51000018E-02   3.15348636E-09
   3.51499990E-02   3.24449401E-09
   3.51999998E-02   3.33592731E-09
   3.52500007E-02   3.42775763E-09
   3.53000015E-02   3.51995566E-09
   3.53499986E-02   3.61249120E-09
   3.53999995E-02   3.70533404E-09
   3.54500003E-02   3.79845266E-09
   3.55000012E-02   3.89181576E-09
   3.55499983E-02   3.98539068E-09
   3.55999991E-02   4.07914413E-09
   3.56500000E-02   4.17304236E-09
   3.57000008E-02   4.26705205E-09
   3.57500017E-02   4.36113767E-09
   3.57999988E-02   4.45526416E-09
   3.58499996E-02   4.54939508E-09
   3.59000005E-02   4.64349403E-09
   3.59500013E-02   4.73752415E-09
   3.59999985E-02   4.83144769E-09
   3.60499993E-02   4.92522600E-09
   3.61000001E-02   5.01882091E-09
   3.61500010E-02   5.11219289E-09
   3.62000018E-02   5.20530197E-09
   3.62499990E-02   5.29810773E-09
   3.62999998E-02   5.39056932E-09
   3.63500006E-02   5.48264545E-09
   3.64000015E-02   5.57429436E-09
   3.64499986E-02   5.66547387E-09
   3.64999995E-02   5.75614045E-09
   3.65500003E-02   5.84625104E-09
   3.66000012E-02   5.93576210E-09
   3.66499983E-02   6.02462924E-09
   3.66999991E-02   6.11280804E-09
   3.67500000E-02   6.20025320E-09
   3.68000008E-02   6.28691899E-09
   3.68500017E-02   6.37275965E-09
   3.68999988E-02   6.45772946E-09
   3.69499996E-02   6.54178134E-09
   3.70000005E-02   6.62486821E-09
   3.70500013E-02   6.70694300E-09
   3.70999984E-02   6.78795820E-09
   3.71499993E-02   6.86786494E-09
   3.72000001E-02   6.94661573E-09
   3.72500010E-02   7.02416125E-09
   3.73000018E-02   7.10045311E-09
   3.73499990E-02   7.17544202E-09
   3.73999998E-02   7.24907911E-09
   3.74500006E-02   7.32131378E-09
   3.75000015E-02   7.39209716E-09
   3.75499986E-02   7.46137818E-09
   3.75999995E-02   7.52910712E-09
   3.76500003E-02   7.59523378E-09
   3.77000012E-02   7.65970842E-09
   3.77499983E-02   7.72247866E-09
   3.77999991E-02   7.78349474E-09
   3.78500000E-02   7.84270515E-09
   3.79000008E-02   7.90006016E-09
   3.79500017E-02   7.95550736E-09
   3.79999988E-02   8.00899613E-09
   3.80499996E-02   8.06047584E-09
   3.81000005E-02   8.10989587E-09
   3.81500013E-02   8.15720380E-09
   3.81999984E-02   8.20234991E-09
   3.82499993E-02   8.24528268E-09
   3.83000001E-02   8.28595148E-09
   3.83500010E-02   8.32430480E-09
   3.84000018E-02   8.36029379E-09
   3.84499989E-02   8.39386693E-09
   3.84999998E-02   8.42497361E-09
   3.85500006E-02   8.45356407E-09
   3.86000015E-02   8.47958770E-09
   3.86499986E-02   8.50299564E-09
   3.86999995E-02   8.52373816E-09
   3.87500003E-02   8.54176641E-09
   3.88000011E-02   8.55703153E-09
   3.88499983E-02   8.56948379E-09
   3.88999991E-02   8.57907700E-09
   3.89500000E-02   8.58576144E-09
   3.90000008E-02   8.58949001E-09
   3.90500017E-02   8.59021654E-09
   3.90999988E-02   8.58789395E-09
   3.91499996E-02   8.58247606E-09
   3.92000005E-02   8.57391669E-09
   3.92500013E-02   8.56217053E-09
   3.92999984E-02   8.54719495E-09
   3.93499993E-02   8.52894377E-09
   3.94000001E-02   8.50737347E-09
   3.94500010E-02   8.48244230E-09
   3.95000018E-02   8.45410675E-09
   3.95499989E-02   8.42232684E-09
   3.95999998E-02   8.38705905E-09
   3.96500006E-02   8.34826430E-09
   3.97000015E-02   8.30590352E-09
   3.97499986E-02   8.25993762E-09
   3.97999994E-02   8.21032842E-09
   3.98500003E-02   8.15703860E-09
   3.99000011E-02   8.10003264E-09
   3.99499983E-02   8.03927236E-09
   3.99999991E-02   7.97472577E-09
   4.00500000E-02   7.90635823E-09
   4.01000008E-02   7.83413601E-09
   4.01500016E-02   7.75802889E-09
   4.01999988E-02   7.67800312E-09
   4.02499996E-02   7.59403029E-09
   4.03000005E-02   7.50608020E-09
   4.03500013E-02   7.41412576E-09
   4.03999984E-02   7.31814076E-09
   4.04499993E-02   7.21809812E-09
   4.05000001E-02   7.11397297E-09
   4.05500010E-02   7.00574265E-09
   4.06000018E-02   6.89338364E-09
   4.06499989E-02   6.77687551E-09
   4.06999998E-02   6.65619737E-09
   4.07500006E-02   6.53133059E-09
   4.08000015E-02   6.40225783E-09
   4.08499986E-02   6.26896224E-09
   4.08999994E-02   6.13142870E-09
   4.09500003E-02   5.98964389E-09
   4.10000011E-02   5.84359539E-09
   4.10499983E-02   5.69327163E-09
   4.10999991E-02   5.53866375E-09
   4.11499999E-02   5.37976241E-09
   4.12000008E-02   5.21656141E-09
   4.12500016E-02   5.04905540E-09
   4.12999988E-02   4.87723950E-09
   4.13499996E-02   4.70111194E-09
   4.14000005E-02   4.52067184E-09
   4.14500013E-02   4.33591918E-09
   4.14999984E-02   4.14685619E-09
   4.15499993E-02   3.95348598E-09
   4.16000001E-02   3.75581433E-09
   4.16500010E-02   3.55384833E-09
   4.17000018E-02   3.34759598E-09
   4.17499989E-02   3.13706727E-09
   4.17999998E-02   2.92227376E-09
   4.18500006E-02   2.70322920E-09
   4.19000015E-02   2.47994825E-09
   4.19499986E-02   2.25244823E-09
   4.19999994E-02   2.02074735E-09
   4.20500003E-02   1.78486537E-09
   4.21000011E-02   1.54482427E-09
   4.21499982E-02   1.30064826E-09
   4.21999991E-02   1.05236275E-09
   4.22499999E-02   7.99994626E-10
   4.23000008E-02   5.43573297E-10
   4.23500016E-02   2.83129686E-10
   4.23999988E-02   1.86963830E-11
   4.24499996E-02  -2.49692156E-10
   4.25000004E-02  -5.21999499E-10
   4.25500013E-02  -7.98187294E-10
   4.25999984E-02  -1.07821541E-09
   4.26499993E-02  -1.36204203E-09
   4.27000001E-02  -1.64962322E-09
   4.27500010E-02  -1.94091321E-09
   4.28000018E-02  -2.23586483E-09