   0.00000000       0.00000000    
   4.99999987E-05   0.00000000    
   9.99999975E-05   0.00000000    
   1.50000007E-04   0.00000000    
   1.99999995E-04  -5.59470092E-27
   2.50000012E-04  -5.60083108E-26
   3.00000014E-04  -3.03173125E-25
   3.49999988E-04  -1.18279171E-24
   3.99999990E-04  -3.73131681E-24
   4.49999992E-04  -1.01158348E-23
   5.00000024E-04  -2.44567991E-23
   5.49999997E-04  -5.40364924E-23
   6.00000028E-04  -1.10995935E-22
   6.50000002E-04  -2.14631306E-22
   6.99999975E-04  -3.94413464E-22
   7.50000007E-04  -6.93850144E-22
   7.99999980E-04  -1.17531793E-21
   8.50000011E-04  -1.92598323E-21
   8.99999985E-04  -3.06493803E-21
   9.50000016E-04  -4.75162957E-21
   1.00000005E-03  -7.19567727E-21
   1.04999996E-03  -1.06681774E-20
   1.09999999E-03  -1.55144590E-20
   1.15000003E-03  -2.21683306E-20
   1.20000006E-03  -3.11677293E-20
   1.24999997E-03  -4.31716548E-20
   1.30000000E-03  -5.89782749E-20
   1.35000004E-03  -7.95440594E-20
   1.39999995E-03  -1.06003325E-19
   1.44999998E-03  -1.39687761E-19
   1.50000001E-03  -1.82146063E-19
   1.55000004E-03  -2.35161968E-19
   1.59999996E-03  -3.00770910E-19
   1.64999999E-03  -3.81273704E-19
   1.70000002E-03  -4.79246061E-19
   1.75000005E-03  -5.97544573E-19
   1.79999997E-03  -7.39305959E-19
   1.85000000E-03  -9.07936188E-19
   1.90000003E-03  -1.10709057E-18
   1.94999995E-03  -1.34064367E-18
   2.00000009E-03  -1.61264671E-18
   2.05000001E-03  -1.92726341E-18
   2.09999993E-03  -2.28868902E-18
   2.15000007E-03  -2.70104765E-18
   2.19999999E-03  -3.16826594E-18
   2.24999990E-03  -3.69390572E-18
   2.30000005E-03  -4.28098434E-18
   2.34999997E-03  -4.93174222E-18
   2.40000011E-03  -5.64736470E-18
   2.45000003E-03  -6.42767974E-18
   2.49999994E-03  -7.27077531E-18
   2.55000009E-03  -8.17256182E-18
   2.60000001E-03  -9.12630107E-18
   2.64999992E-03  -1.01220644E-17
   2.70000007E-03  -1.11460271E-17
   2.74999999E-03  -1.21798044E-17
   2.79999990E-03  -1.31996362E-17
   2.85000005E-03  -1.41754272E-17
   2.89999996E-03  -1.50697451E-17
   2.95000011E-03  -1.58367070E-17
   3.00000003E-03  -1.64207147E-17
   3.04999994E-03  -1.67549983E-17
   3.10000009E-03  -1.67600987E-17
   3.15000000E-03  -1.63421574E-17
   3.19999992E-03  -1.53910651E-17
   3.25000007E-03  -1.37784037E-17
   3.29999998E-03  -1.13552228E-17
   3.34999990E-03  -7.94948279E-18
   3.40000005E-03  -3.36350724E-18
   3.44999996E-03   2.62877730E-18
   3.50000011E-03   1.02853027E-17
   3.55000002E-03   1.98990936E-17
   3.59999994E-03   3.18016866E-17
   3.65000009E-03   4.63674206E-17
   3.70000000E-03   6.40175590E-17
   3.74999992E-03   8.52248950E-17
   3.80000006E-03   1.10518437E-16
   3.84999998E-03   1.40488726E-16
   3.89999989E-03   1.75793377E-16
   3.94999981E-03   2.17163141E-16
   4.00000019E-03   2.65407954E-16
   4.05000011E-03   3.21423990E-16
   4.10000002E-03   3.86200967E-16
   4.14999994E-03   4.60829546E-16
   4.19999985E-03   5.46508622E-16
   4.25000023E-03   6.44554750E-16
   4.30000015E-03   7.56411698E-16
   4.35000006E-03   8.83658652E-16
   4.39999998E-03   1.02802038E-15
   4.44999989E-03   1.19137863E-15
   4.49999981E-03   1.37578257E-15
   4.55000019E-03   1.58346044E-15
   4.60000010E-03   1.81683104E-15
   4.65000002E-03   2.07851827E-15
   4.69999993E-03   2.37136424E-15
   4.74999985E-03   2.69844051E-15
   4.80000023E-03   3.06306511E-15
   4.85000014E-03   3.46881930E-15
   4.90000006E-03   3.91955984E-15
   4.94999997E-03   4.41943548E-15
   4.99999989E-03   4.97290883E-15
   5.04999980E-03   5.58476859E-15
   5.10000018E-03   6.26015200E-15
   5.15000010E-03   7.00456225E-15
   5.20000001E-03   7.82388748E-15
   5.24999993E-03   8.72442072E-15
   5.29999984E-03   9.71288361E-15
   5.35000023E-03   1.07964471E-14
   5.40000014E-03   1.19827549E-14
   5.45000006E-03   1.32799426E-14
   5.49999997E-03   1.46966637E-14
   5.54999989E-03   1.62421160E-14
   5.59999980E-03   1.79260632E-14
   5.65000018E-03   1.97588663E-14
   5.70000010E-03   2.17515012E-14
   5.75000001E-03   2.39155890E-14
   5.79999993E-03   2.62634305E-14
   5.84999984E-03   2.88080208E-14
   5.90000022E-03   3.15630870E-14
   5.95000014E-03   3.45431183E-14
   6.00000005E-03   3.77633851E-14
   6.04999997E-03   4.12399708E-14
   6.09999988E-03   4.49898230E-14
   6.14999980E-03   4.90307563E-14
   6.20000018E-03   5.33814936E-14
   6.25000009E-03   5.80617097E-14
   6.30000001E-03   6.30920148E-14
   6.34999992E-03   6.84940521E-14
   6.39999984E-03   7.42904951E-14
   6.45000022E-03   8.05050877E-14
   6.50000013E-03   8.71626379E-14
   6.55000005E-03   9.42891056E-14
   6.59999996E-03   1.01911643E-13
   6.64999988E-03   1.10058535E-13
   6.69999979E-03   1.18759318E-13
   6.75000018E-03   1.28044778E-13
   6.80000009E-03   1.37946946E-13
   6.85000001E-03   1.48499201E-13
   6.89999992E-03   1.59736279E-13
   6.94999984E-03   1.71694270E-13
   7.00000022E-03   1.84410633E-13
   7.05000013E-03   1.97924264E-13
   7.10000005E-03   2.12275550E-13
   7.14999996E-03   2.27506300E-13
   7.19999988E-03   2.43659802E-13
   7.24999979E-03   2.60780872E-13
   7.30000017E-03   2.78915915E-13
   7.35000009E-03   2.98112880E-13
   7.40000000E-03   3.18421288E-13
   7.44999992E-03   3.39892204E-13
   7.49999983E-03   3.62578321E-13
   7.55000021E-03   3.86533931E-13
   7.60000013E-03   4.11815113E-13
   7.65000004E-03   4.38479385E-13
   7.69999996E-03   4.66585863E-13
   7.74999987E-03   4.96195478E-13
   7.79999979E-03   5.27370844E-13
   7.84999970E-03   5.60175983E-13
   7.89999962E-03   5.94676597E-13
   7.95000046E-03   6.30940233E-13
   8.00000038E-03   6.69035899E-13
   8.05000030E-03   7.09034177E-13
   8.10000021E-03   7.51007221E-13
   8.15000013E-03   7.95028756E-13
   8.20000004E-03   8.41174136E-13
   8.24999996E-03   8.89520120E-13
   8.29999987E-03   9.40144772E-13
   8.34999979E-03   9.93127997E-13
   8.39999970E-03   1.04855079E-12
   8.44999962E-03   1.10649543E-12
   8.50000046E-03   1.16704552E-12
   8.55000038E-03   1.23028606E-12
   8.60000029E-03   1.29630291E-12
   8.65000021E-03   1.36518325E-12
   8.70000012E-03   1.43701522E-12
   8.75000004E-03   1.51188784E-12
   8.79999995E-03   1.58989120E-12
   8.84999987E-03   1.67111561E-12
   8.89999978E-03   1.75565270E-12
   8.94999970E-03   1.84359429E-12
   8.99999961E-03   1.93503286E-12
   9.05000046E-03   2.03006102E-12
   9.10000037E-03   2.12877155E-12
   9.15000029E-03   2.23125771E-12
   9.20000020E-03   2.33761231E-12
   9.25000012E-03   2.44792814E-12
   9.30000003E-03   2.56229760E-12
   9.34999995E-03   2.68081325E-12
   9.39999986E-03   2.80356619E-12
   9.44999978E-03   2.93064639E-12
   9.49999969E-03   3.06214364E-12
   9.54999961E-03   3.19814639E-12
   9.60000046E-03   3.33874161E-12
   9.65000037E-03   3.48401451E-12
   9.70000029E-03   3.63404879E-12
   9.75000020E-03   3.78892620E-12
   9.80000012E-03   3.94872589E-12
   9.85000003E-03   4.11352549E-12
   9.89999995E-03   4.28339916E-12
   9.94999986E-03   4.45841758E-12
   9.99999978E-03   4.63864927E-12
   1.00499997E-02   4.82415930E-12
   1.00999996E-02   5.01500881E-12
   1.01500005E-02   5.21125460E-12
   1.02000004E-02   5.41295047E-12
   1.02500003E-02   5.62014411E-12
   1.03000002E-02   5.83287932E-12
   1.03500001E-02   6.05119470E-12
   1.04000000E-02   6.27512278E-12
   1.04499999E-02   6.50469132E-12
   1.04999999E-02   6.73992199E-12
   1.05499998E-02   6.98082781E-12
   1.05999997E-02   7.22741788E-12
   1.06499996E-02   7.47969308E-12
   1.07000005E-02   7.73764820E-12
   1.07500004E-02   8.00126718E-12
   1.08000003E-02   8.27052662E-12
   1.08500002E-02   8.54539790E-12
   1.09000001E-02   8.82584110E-12
   1.09500000E-02   9.11180593E-12
   1.09999999E-02   9.40323600E-12
   1.10499999E-02   9.70006020E-12
   1.10999998E-02   1.00022013E-11
   1.11499997E-02   1.03095683E-11
   1.11999996E-02   1.06220605E-11
   1.12500004E-02   1.09395661E-11
   1.13000004E-02   1.12619584E-11
   1.13500003E-02   1.15891038E-11
   1.14000002E-02   1.19208515E-11
   1.14500001E-02   1.22570374E-11
   1.15000000E-02   1.25974856E-11
   1.15499999E-02   1.29420068E-11
   1.15999999E-02   1.32903957E-11
   1.16499998E-02   1.36424327E-11
   1.16999997E-02   1.39978836E-11
   1.17499996E-02   1.43564969E-11
   1.18000004E-02   1.47180081E-11
   1.18500004E-02   1.50821352E-11
   1.19000003E-02   1.54485782E-11
   1.19500002E-02   1.58170196E-11
   1.20000001E-02   1.61871298E-11
   1.20500000E-02   1.65585514E-11
   1.20999999E-02   1.69309202E-11
   1.21499998E-02   1.73038459E-11
   1.21999998E-02   1.76769207E-11
   1.22499997E-02   1.80497197E-11
   1.22999996E-02   1.84217953E-11
   1.23500004E-02   1.87926827E-11
   1.24000004E-02   1.91618943E-11
   1.24500003E-02   1.95289288E-11
   1.25000002E-02   1.98932537E-11
   1.25500001E-02   2.02543243E-11
   1.26000000E-02   2.06115715E-11
   1.26499999E-02   2.09644004E-11
   1.26999998E-02   2.13122020E-11
   1.27499998E-02   2.16543415E-11
   1.27999997E-02   2.19901632E-11
   1.28499996E-02   2.23189869E-11
   1.29000004E-02   2.26401120E-11
   1.29500004E-02   2.29528150E-11
   1.30000003E-02   2.32563500E-11
   1.30500002E-02   2.35499484E-11
   1.31000001E-02   2.38328194E-11
   1.31500000E-02   2.41041475E-11
   1.31999999E-02   2.43630949E-11
   1.32499998E-02   2.46088063E-11
   1.32999998E-02   2.48403971E-11
   1.33499997E-02   2.50569582E-11
   1.33999996E-02   2.52575686E-11
   1.34500004E-02   2.54412776E-11
   1.35000004E-02   2.56071102E-11
   1.35500003E-02   2.57540742E-11
   1.36000002E-02   2.58811549E-11
   1.36500001E-02   2.59873147E-11
   1.37000000E-02   2.60714957E-11
   1.37499999E-02   2.61326169E-11
   1.37999998E-02   2.61695839E-11
   1.38499998E-02   2.61812759E-11
   1.38999997E-02   2.61665516E-11
   1.39499996E-02   2.61242538E-11
   1.40000004E-02   2.60532065E-11
   1.40500003E-02   2.59522161E-11
   1.41000003E-02   2.58200718E-11
   1.41500002E-02   2.56555454E-11
   1.42000001E-02   2.54573931E-11
   1.42500000E-02   2.52243556E-11
   1.42999999E-02   2.49551577E-11
   1.43499998E-02   2.46485124E-11
   1.43999998E-02   2.43031185E-11
   1.44499997E-02   2.39176682E-11
   1.44999996E-02   2.34908377E-11
   1.45500004E-02   2.30212949E-11
   1.46000003E-02   2.25076988E-11
   1.46500003E-02   2.19486981E-11
   1.47000002E-02   2.13429413E-11
   1.47500001E-02   2.06890685E-11
   1.48000000E-02   1.99857145E-11
   1.48499999E-02   1.92315122E-11
   1.48999998E-02   1.84250965E-11
   1.49499997E-02   1.75651004E-11
   1.49999997E-02   1.66501569E-11
   1.50499996E-02   1.56789026E-11
   1.51000004E-02   1.46499791E-11
   1.51500003E-02   1.35620360E-11
   1.52000003E-02   1.24137289E-11
   1.52500002E-02   1.12037246E-11
   1.53000001E-02   9.93070036E-12
   1.53500000E-02   8.59334912E-12
   1.53999999E-02   7.19037807E-12
   1.54499998E-02   5.72050827E-12
   1.54999997E-02   4.18248379E-12
   1.55499997E-02   2.57506950E-12
   1.55999996E-02   8.97052235E-13
   1.56500004E-02  -8.52753848E-13
   1.56999994E-02  -2.67550955E-12
   1.57500003E-02  -4.57234597E-12
   1.57999992E-02  -6.54436227E-12
   1.58500001E-02  -8.59262141E-12
   1.59000009E-02  -1.07181512E-11
   1.59499999E-02  -1.29219404E-11
   1.60000008E-02  -1.52049380E-11
   1.60499997E-02  -1.75680442E-11
   1.61000006E-02  -2.00121152E-11
   1.61499996E-02  -2.25379593E-11
   1.62000004E-02  -2.51463329E-11
   1.62499994E-02  -2.78379368E-11
   1.63000003E-02  -3.06134215E-11
   1.63499992E-02  -3.34733699E-11
   1.64000001E-02  -3.64183093E-11
   1.64500009E-02  -3.94486908E-11
   1.64999999E-02  -4.25649134E-11
   1.65500008E-02  -4.57672997E-11
   1.65999997E-02  -4.90560960E-11
   1.66500006E-02  -5.24314689E-11
   1.66999996E-02  -5.58935224E-11
   1.67500004E-02  -5.94422567E-11
   1.67999994E-02  -6.30776056E-11
   1.68500002E-02  -6.67994063E-11
   1.68999992E-02  -7.06074019E-11
   1.69500001E-02  -7.45012593E-11
   1.70000009E-02  -7.84805346E-11
   1.70499999E-02  -8.25446933E-11
   1.71000008E-02  -8.66930833E-11
   1.71499997E-02  -9.09249620E-11
   1.72000006E-02  -9.52394830E-11
   1.72499996E-02  -9.96356886E-11
   1.73000004E-02  -1.04112483E-10
   1.73499994E-02  -1.08668692E-10
   1.74000002E-02  -1.13302999E-10
   1.74499992E-02  -1.18013974E-10
   1.75000001E-02  -1.22800034E-10
   1.75500009E-02  -1.27659522E-10
   1.75999999E-02  -1.32590605E-10
   1.76500008E-02  -1.37591341E-10
   1.76999997E-02  -1.42659648E-10
   1.77500006E-02  -1.47793319E-10
   1.77999996E-02  -1.52989982E-10
   1.78500004E-02  -1.58247138E-10
   1.78999994E-02  -1.63562150E-10
   1.79500002E-02  -1.68932215E-10
   1.79999992E-02  -1.74354406E-10
   1.80500001E-02  -1.79825599E-10
   1.81000009E-02  -1.85342561E-10
   1.81499999E-02  -1.90901878E-10
   1.82000007E-02  -1.96499983E-10
   1.82499997E-02  -2.02133199E-10
   1.83000006E-02  -2.07797599E-10
   1.83499996E-02  -2.13489157E-10
   1.84000004E-02  -2.19203614E-10
   1.84499994E-02  -2.24936667E-10
   1.85000002E-02  -2.30683736E-10
   1.85499992E-02  -2.36440145E-10
   1.86000001E-02  -2.42200954E-10
   1.86500009E-02  -2.47961179E-10
   1.86999999E-02  -2.53715549E-10
   1.87500007E-02  -2.59458677E-10
   1.87999997E-02  -2.65184985E-10
   1.88500006E-02  -2.70888784E-10
   1.88999996E-02  -2.76564133E-10
   1.89500004E-02  -2.82204954E-10
   1.89999994E-02  -2.87804974E-10
   1.90500002E-02  -2.93357783E-10
   1.90999992E-02  -2.98856745E-10
   1.91500001E-02  -3.04295117E-10
   1.92000009E-02  -3.09665932E-10
   1.92499999E-02  -3.14962084E-10
   1.93000007E-02  -3.20176274E-10
   1.93499997E-02  -3.25301064E-10
   1.94000006E-02  -3.30328792E-10
   1.94499996E-02  -3.35251715E-10
   1.95000004E-02  -3.40061868E-10
   1.95499994E-02  -3.44751144E-10
   1.96000002E-02  -3.49311219E-10
   1.96499992E-02  -3.53733709E-10
   1.97000001E-02  -3.58010038E-10
   1.97500009E-02  -3.62131436E-10
   1.97999999E-02  -3.66089048E-10
   1.98500007E-02  -3.69873826E-10
   1.98999997E-02  -3.73476611E-10
   1.99500006E-02  -3.76888104E-10
   1.99999996E-02  -3.80098841E-10
   2.00500004E-02  -3.83099275E-10
   2.00999994E-02  -3.85879717E-10
   2.01500002E-02  -3.88430316E-10
   2.01999992E-02  -3.90741189E-10
   2.02500001E-02  -3.92802263E-10
   2.03000009E-02  -3.94603433E-10
   2.03499999E-02  -3.96134403E-10
   2.04000007E-02  -3.97384847E-10
   2.04499997E-02  -3.98344330E-10
   2.05000006E-02  -3.99002359E-10
   2.05499995E-02  -3.99348360E-10
   2.06000004E-02  -3.99371702E-10
   2.06499994E-02  -3.99061673E-10
   2.07000002E-02  -3.98407474E-10
   2.07499992E-02  -3.97398364E-10
   2.08000001E-02  -3.96023492E-10
   2.08500009E-02  -3.94271948E-10
   2.08999999E-02  -3.92132854E-10
   2.09500007E-02  -3.89595328E-10
   2.09999997E-02  -3.86648463E-10
   2.10500006E-02  -3.83281351E-10
   2.10999995E-02  -3.79483139E-10
   2.11500004E-02  -3.75242976E-10
   2.11999994E-02  -3.70549980E-10
   2.12500002E-02  -3.65393410E-10
   2.12999992E-02  -3.59762609E-10
   2.13500001E-02  -3.53646890E-10
   2.14000009E-02  -3.47035650E-10
   2.14499999E-02  -3.39918454E-10
   2.15000007E-02  -3.32284894E-10
   2.15499997E-02  -3.24124727E-10
   2.16000006E-02  -3.15427795E-10
   2.16499995E-02  -3.06184078E-10
   2.17000004E-02  -2.96383723E-10
   2.17499994E-02  -2.86017071E-10
   2.18000002E-02  -2.75074546E-10
   2.18499992E-02  -2.63546823E-10
   2.19000001E-02  -2.51424770E-10
   2.19500009E-02  -2.38699449E-10
   2.19999999E-02  -2.25362159E-10
   2.20500007E-02  -2.11404436E-10
   2.20999997E-02  -1.96818103E-10
   2.21500006E-02  -1.81595211E-10
   2.21999995E-02  -1.65728098E-10
   2.22500004E-02  -1.49209367E-10
   2.22999994E-02  -1.32031996E-10
   2.23500002E-02  -1.14189262E-10
   2.23999992E-02  -9.56747667E-11
   2.24500000E-02  -7.64824662E-11
   2.25000009E-02  -5.66067124E-11
   2.25499999E-02  -3.60422109E-11
   2.26000007E-02  -1.47840681E-11
   2.26499997E-02   7.17218559E-12
   2.27000006E-02   2.98305894E-11
   2.27499995E-02   5.31947437E-11
   2.28000004E-02   7.72677825E-11
   2.28499994E-02   1.02052373E-10
   2.29000002E-02   1.27550692E-10
   2.29499992E-02   1.53764432E-10
   2.30000000E-02   1.80694723E-10
   2.30500009E-02   2.08342191E-10
   2.30999999E-02   2.36706876E-10
   2.31500007E-02   2.65788308E-10
   2.31999997E-02   2.95585389E-10
   2.32500006E-02   3.26096483E-10
   2.32999995E-02   3.57319313E-10
   2.33500004E-02   3.89250909E-10
   2.33999994E-02   4.21887747E-10
   2.34500002E-02   4.55225635E-10
   2.34999992E-02   4.89259688E-10
   2.35500000E-02   5.23984411E-10
   2.36000009E-02   5.59393476E-10
   2.36499999E-02   5.95479999E-10
   2.37000007E-02   6.32236263E-10
   2.37499997E-02   6.69653832E-10
   2.38000005E-02   7.07723546E-10
   2.38499995E-02   7.46435469E-10
   2.39000004E-02   7.85778886E-10
   2.39499994E-02   8.25742252E-10
   2.40000002E-02   8.66313299E-10
   2.40499992E-02   9.07478925E-10
   2.41000000E-02   9.49225254E-10
   2.41500009E-02   9.91537519E-10
   2.41999999E-02   1.03439990E-09
   2.42500007E-02   1.07779619E-09
   2.42999997E-02   1.12170895E-09
   2.43500005E-02   1.16612009E-09
   2.43999995E-02   1.21101029E-09
   2.44500004E-02   1.25635968E-09
   2.44999994E-02   1.30214750E-09
   2.45500002E-02   1.34835176E-09
   2.45999992E-02   1.39494993E-09
   2.46500000E-02   1.44191825E-09
   2.47000009E-02   1.48923229E-09
   2.47499999E-02   1.53686641E-09
   2.48000007E-02   1.58479430E-09
   2.48499997E-02   1.63298863E-09
   2.49000005E-02   1.68142100E-09
   2.49499995E-02   1.73006243E-09
   2.50000004E-02   1.77888226E-09
   2.50499994E-02   1.82784976E-09
   2.51000002E-02   1.87693283E-09
   2.51499992E-02   1.92609795E-09
   2.52000000E-02   1.97531169E-09
   2.52500009E-02   2.02453876E-09
   2.52999999E-02   2.07374362E-09
   2.53500007E-02   2.12288898E-09
   2.53999997E-02   2.17193707E-09
   2.54500005E-02   2.22084950E-09
   2.54999995E-02   2.26958652E-09
   2.55500004E-02   2.31810726E-09
   2.55999994E-02   2.36637088E-09
   2.56500002E-02   2.41433429E-09
   2.56999992E-02   2.46195442E-09
   2.57500000E-02   2.50918730E-09
   2.58000009E-02   2.55598764E-09
   2.58499999E-02   2.60230926E-09
   2.59000007E-02   2.64810551E-09
   2.59499997E-02   2.69332867E-09
   2.60000005E-02   2.73793055E-09
   2.60499995E-02   2.78186119E-09
   2.61000004E-02   2.82507129E-09
   2.61499994E-02   2.86750934E-09
   2.62000002E-02   2.90912383E-09
   2.62499992E-02   2.94986235E-09
   2.63000000E-02   2.98967207E-09
   2.63500009E-02   3.02849856E-09
   2.63999999E-02   3.06628789E-09
   2.64500007E-02   3.10298431E-09
   2.64999997E-02   3.13853210E-09
   2.65500005E-02   3.17287507E-09
   2.65999995E-02   3.20595572E-09
   2.66500004E-02   3.23771676E-09
   2.66999993E-02   3.26810001E-09
   2.67500002E-02   3.29704686E-09
   2.67999992E-02   3.32449779E-09
   2.68500000E-02   3.35039374E-09
   2.69000009E-02   3.37467454E-09
   2.69499999E-02   3.39727979E-09
   2.70000007E-02   3.41814865E-09
   2.70499997E-02   3.43722029E-09
   2.71000005E-02   3.45443341E-09
   2.71499995E-02   3.46972651E-09
   2.72000004E-02   3.48303786E-09
   2.72499993E-02   3.49430529E-09
   2.73000002E-02   3.50346663E-09
   2.73499992E-02   3.51046037E-09
   2.74000000E-02   3.51522411E-09
   2.74500009E-02   3.51769569E-09
   2.74999999E-02   3.51781315E-09
   2.75500007E-02   3.51551455E-09
   2.75999997E-02   3.51073770E-09
   2.76500005E-02   3.50342133E-09
   2.76999995E-02   3.49350371E-09
   2.77500004E-02   3.48092399E-09
   2.77999993E-02   3.46562112E-09
   2.78500002E-02   3.44753470E-09
   2.78999992E-02   3.42660478E-09
   2.79500000E-02   3.40277206E-09
   2.80000009E-02   3.37597728E-09
   2.80499998E-02   3.34616201E-09
   2.81000007E-02   3.31326877E-09
   2.81499997E-02   3.27724048E-09
   2.82000005E-02   3.23802074E-09
   2.82499995E-02   3.19555427E-09
   2.83000004E-02   3.14978643E-09
   2.83499993E-02   3.10066373E-09
   2.84000002E-02   3.04813308E-09
   2.84499992E-02   2.99214298E-09
   2.85000000E-02   2.93264324E-09
   2.85500009E-02   2.86958413E-09
   2.85999998E-02   2.80291745E-09
   2.86500007E-02   2.73259682E-09
   2.86999997E-02   2.65857647E-09
   2.87500005E-02   2.58081201E-09
   2.87999995E-02   2.49926124E-09
   2.88500004E-02   2.41388287E-09
   2.88999993E-02   2.32463759E-09
   2.89500002E-02   2.23148766E-09
   2.89999992E-02   2.13439688E-09
   2.90500000E-02   2.03333061E-09
   2.91000009E-02   1.92825667E-09
   2.91499998E-02   1.81914439E-09
   2.92000007E-02   1.70596537E-09
   2.92499997E-02   1.58869284E-09
   2.93000005E-02   1.46730239E-09
   2.93499995E-02   1.34177180E-09
   2.94000003E-02   1.21208088E-09
   2.94499993E-02   1.07821208E-09
   2.95000002E-02   9.40149958E-10
   2.95499992E-02   7.97881261E-10
   2.96000000E-02   6.51395715E-10
   2.96500009E-02   5.00685271E-10
   2.96999998E-02   3.45744600E-10
   2.97500007E-02   1.86571036E-10
   2.97999997E-02   2.31645206E-11
   2.98500005E-02  -1.44472212E-10
   2.98999995E-02  -3.16333487E-10
   2.99500003E-02  -4.92410501E-10
   2.99999993E-02  -6.72692180E-10
   3.00500002E-02  -8.57163840E-10
   3.00999992E-02  -1.04580788E-09
   3.01500000E-02  -1.23860366E-09
   3.02000009E-02  -1.43552714E-09
   3.02499998E-02  -1.63655123E-09
   3.03000007E-02  -1.84164561E-09
   3.03499997E-02  -2.05077644E-09
   3.04000005E-02  -2.26390662E-09
   3.04499995E-02  -2.48099563E-09
   3.05000003E-02  -2.70199929E-09
   3.05499993E-02  -2.92687008E-09
   3.06000002E-02  -3.15555670E-09
   3.06499992E-02  -3.38800477E-09
   3.07000000E-02  -3.62415564E-09
   3.07500008E-02  -3.86394738E-09
   3.07999998E-02  -4.10731360E-09
   3.08500007E-02  -4.35418501E-09
   3.08999997E-02  -4.60448835E-09
   3.09500005E-02  -4.85814633E-09
   3.09999995E-02  -5.11507725E-09
   3.10500003E-02  -5.37519673E-09
   3.10999993E-02  -5.63841507E-09
   3.11500002E-02  -5.90463944E-09
   3.11999992E-02  -6.17377394E-09
   3.12500000E-02  -6.44571596E-09
   3.13000008E-02  -6.72036160E-09
   3.13500017E-02  -6.99760205E-09
   3.13999988E-02  -7.27732363E-09
   3.14499997E-02  -7.55940999E-09
   3.15000005E-02  -7.84373899E-09
   3.15500014E-02  -8.13018630E-09
   3.15999985E-02  -8.41862224E-09
   3.16499993E-02  -8.70891359E-09
   3.17000002E-02  -9.00092267E-09
   3.17500010E-02  -9.29450827E-09
   3.18000019E-02  -9.58952384E-09
   3.18499990E-02  -9.88581927E-09
   3.18999998E-02  -1.01832427E-08
   3.19500007E-02  -1.04816351E-08
   3.20000015E-02  -1.07808340E-08
   3.20499986E-02  -1.10806759E-08
   3.20999995E-02  -1.13809886E-08
   3.21500003E-02  -1.16815988E-08
   3.22000012E-02  -1.19823280E-08
   3.22499983E-02  -1.22829960E-08
   3.22999991E-02  -1.25834161E-08
   3.23500000E-02  -1.28834001E-08
   3.24000008E-02  -1.31827536E-08
   3.24500017E-02  -1.34812801E-08
   3.24999988E-02  -1.37787790E-08
   3.25499997E-02  -1.40750469E-08
   3.26000005E-02  -1.43698751E-08
   3.26500013E-02  -1.46630521E-08
   3.26999985E-02  -1.49543613E-08
   3.27499993E-02  -1.52435877E-08
   3.28000002E-02  -1.55305084E-08
   3.28500010E-02  -1.58148978E-08
   3.29000019E-02  -1.60965303E-08
   3.29499990E-02  -1.63751714E-08
   3.29999998E-02  -1.66505885E-08
   3.30500007E-02  -1.69225416E-08
   3.31000015E-02  -1.71907946E-08
   3.31499986E-02  -1.74551023E-08
   3.31999995E-02  -1.77152195E-08
   3.32500003E-02  -1.79708977E-08
   3.33000012E-02  -1.82218862E-08
   3.33499983E-02  -1.84679330E-08
   3.33999991E-02  -1.87087839E-08
   3.34500000E-02  -1.89441778E-08
   3.35000008E-02  -1.91738572E-08
   3.35500017E-02  -1.93975591E-08
   3.35999988E-02  -1.96150225E-08
   3.36499996E-02  -1.98259791E-08
   3.37000005E-02  -2.00301660E-08
   3.37500013E-02  -2.02273149E-08
   3.37999985E-02  -2.04171542E-08
   3.38499993E-02  -2.05994120E-08
   3.39000002E-02  -2.07738200E-08
   3.39500010E-02  -2.09401048E-08
   3.40000018E-02  -2.10979962E-08
   3.40499990E-02  -2.12472155E-08
   3.40999998E-02  -2.13874909E-08
   3.41500007E-02  -2.15185469E-08
   3.42000015E-02  -2.16401137E-08
   3.42499986E-02  -2.17519105E-08
   3.42999995E-02  -2.18536673E-08
   3.43500003E-02  -2.19451088E-08
   3.44000012E-02  -2.20259633E-08
   3.44499983E-02  -2.20959553E-08
   3.44999991E-02  -2.21548166E-08
   3.45500000E-02  -2.22022773E-08
   3.46000008E-02  -2.22380638E-08
   3.46500017E-02  -2.22619114E-08
   3.46999988E-02  -2.22735537E-08
   3.47499996E-02  -2.22727241E-08
   3.48000005E-02  -2.22591634E-08
   3.48500013E-02  -2.22326104E-08
   3.48999985E-02  -2.21928094E-08
   3.49499993E-02  -2.21395027E-08
   3.50000001E-02  -2.20724399E-08
   3.50500010E-02  -2.19913723E-08
   3.51000018E-02  -2.18960530E-08
   3.51499990E-02  -2.17862386E-08
   3.51999998E-02  -2.16616911E-08
   3.52500007E-02  -2.15221760E-08
   3.53000015E-02  -2.13674625E-08
   3.53499986E-02  -2.11973230E-08
   3.53999995E-02  -2.10115374E-08
   3.54500003E-02  -2.08098854E-08
   3.55000012E-02  -2.05921573E-08
   3.55499983E-02  -2.03581418E-08
   3.55999991E-02  -2.01076418E-08
   3.56500000E-02  -1.98404564E-08
   3.57000008E-02  -1.95563974E-08
   3.57500017E-02  -1.92552783E-08
   3.57999988E-02  -1.89369196E-08
   3.58499996E-02  -1.86011526E-08
   3.59000005E-02  -1.82478068E-08
   3.59500013E-02  -1.78767277E-08
   3.59999985E-02  -1.74877606E-08
   3.60499993E-02  -1.70807635E-08
   3.61000001E-02  -1.66555978E-08
   3.61500010E-02  -1.62121339E-08
   3.62000018E-02  -1.57502527E-08
   3.62499990E-02  -1.52698370E-08
   3.62999998E-02  -1.47707864E-08
   3.63500006E-02  -1.42530041E-08
   3.64000015E-02  -1.37164005E-08
   3.64499986E-02  -1.31608990E-08
   3.64999995E-02  -1.25864288E-08
   3.65500003E-02  -1.19929302E-08
   3.66000012E-02  -1.13803535E-08
   3.66499983E-02  -1.07486589E-08
   3.66999991E-02  -1.00978141E-08
   3.67500000E-02  -9.42779987E-09
   3.68000008E-02  -8.73860717E-09
   3.68500017E-02  -8.03023514E-09
   3.68999988E-02  -7.30269667E-09
   3.69499996E-02  -6.55601395E-09
   3.70000005E-02  -5.79021942E-09
   3.70500013E-02  -5.00535746E-09
   3.70999984E-02  -4.20148583E-09
   3.71499993E-02  -3.37867201E-09
   3.72000001E-02  -2.53699572E-09
   3.72500010E-02  -1.67654890E-09
   3.73000018E-02  -7.97435229E-10
   3.73499990E-02   1.00229124E-10
   3.73999998E-02   1.01631503E-09
   3.74500006E-02   1.95068184E-09
   3.75000015E-02   2.90317526E-09
   3.75499986E-02   3.87362853E-09
   3.75999995E-02   4.86186069E-09
   3.76500003E-02   5.86768012E-09
   3.77000012E-02   6.89087987E-09
   3.77499983E-02   7.93124055E-09
   3.77999991E-02   8.98852814E-09
   3.78500000E-02   1.00624984E-08
   3.79000008E-02   1.11528875E-08
   3.79500017E-02   1.22594246E-08
   3.79999988E-02   1.33818192E-08
   3.80499996E-02   1.45197703E-08
   3.81000005E-02   1.56729616E-08
   3.81500013E-02   1.68410619E-08
   3.81999984E-02   1.80237283E-08
   3.82499993E-02   1.92206038E-08
   3.83000001E-02   2.04313135E-08
   3.83500010E-02   2.16554703E-08
   3.84000018E-02   2.28926744E-08
   3.84499989E-02   2.41425102E-08
   3.84999998E-02   2.54045478E-08
   3.85500006E-02   2.66783395E-08
   3.86000015E-02   2.79634289E-08
   3.86499986E-02   2.92593452E-08
   3.86999995E-02   3.05655981E-08
   3.87500003E-02   3.18816866E-08
   3.88000011E-02   3.32070975E-08
   3.88499983E-02   3.45412978E-08
   3.88999991E-02   3.58837475E-08
   3.89500000E-02   3.72338818E-08
   3.90000008E-02   3.85911285E-08
   3.90500017E-02   3.99549052E-08
   3.90999988E-02   4.13246077E-08
   3.91499996E-02   4.26996287E-08
   3.92000005E-02   4.40793322E-08
   3.92500013E-02   4.54630786E-08
   3.92999984E-02   4.68502144E-08
   3.93499993E-02   4.82400750E-08
   3.94000001E-02   4.96319714E-08
   3.94500010E-02   5.10252107E-08
   3.95000018E-02   5.24190931E-08
   3.95499989E-02   5.38128866E-08
   3.95999998E-02   5.52058594E-08
   3.96500006E-02   5.65972726E-08
   3.97000015E-02   5.79863730E-08
   3.97499986E-02   5.93723826E-08
   3.97999994E-02   6.07545161E-08
   3.98500003E-02   6.21319955E-08
   3.99000011E-02   6.35040038E-08
   3.99499983E-02   6.48697238E-08
   3.99999991E-02   6.62283384E-08
   4.00500000E-02   6.75790162E-08
   4.01000008E-02   6.89208974E-08
   4.01500016E-02   7.02531295E-08
   4.01999988E-02   7.15748527E-08
   4.02499996E-02   7.28851788E-08
   4.03000005E-02   7.41832338E-08
   4.03500013E-02   7.54681153E-08
   4.03999984E-02   7.67389281E-08
   4.04499993E-02   7.79947626E-08
   4.05000001E-02   7.92346881E-08
   4.05500010E-02   8.04577880E-08
   4.06000018E-02   8.16631314E-08
   4.06499989E-02   8.28497804E-08
   4.06999998E-02   8.40167829E-08
   4.07500006E-02   8.51631938E-08
   4.08000015E-02   8.62880469E-08
   4.08499986E-02   8.73903900E-08
   4.08999994E-02   8.84692568E-08
   4.09500003E-02   8.95236738E-08
   4.10000011E-02   9.05526676E-08
   4.10499983E-02   9.15552505E-08
   4.10999991E-02   9.25304562E-08
   4.11499999E-02   9.34772899E-08
   4.12000008E-02   9.43947782E-08
   4.12500016E-02   9.52819263E-08
   4.12999988E-02   9.61377609E-08
   4.13499996E-02   9.69612799E-08
   4.14000005E-02   9.77514958E-08
   4.14500013E-02   9.85074351E-08
   4.14999984E-02   9.92280889E-08
   4.15499993E-02   9.99124836E-08
   4.16000001E-02   1.00559646E-07
   4.16500010E-02   1.01168588E-07
   4.17000018E-02   1.01738330E-07
   4.17499989E-02   1.02267904E-07
   4.17999998E-02   1.02756346E-07
   4.18500006E-02   1.03202687E-07
   4.19000015E-02   1.03605970E-07
   4.19499986E-02   1.03965242E-07
   4.19999994E-02   1.04279557E-07
   4.20500003E-02   1.04547986E-07
   4.21000011E-02   1.04769590E-07
   4.21499982E-02   1.04943460E-07
   4.21999991E-02   1.05068665E-07
   4.22499999E-02   1.05144316E-07
   4.23000008E-02   1.05169512E-07
   4.23500016E-02   1.05143371E-07
   4.23999988E-02   1.05065034E-07
   4.24499996E-02   1.04933626E-07
   4.25000004E-02   1.04748317E-07
   4.25500013E-02   1.04508260E-07
   4.25999984E-02   1.04212653E-07
   4.26499993E-02   1.03860671E-07
   4.27000001E-02   1.03451541E-07
   4.27500010E-02   1.02984480E-07
   4.28000018E-02   1.02458735E-07