   0.00000000       0.00000000    
   4.99999987E-05   0.00000000    
   9.99999975E-05   0.00000000    
   1.50000007E-04   0.00000000    
   1.99999995E-04  -6.06695124E-25
   2.50000012E-04  -6.09307131E-24
   3.00000014E-04  -3.30782220E-23
   3.49999988E-04  -1.29430416E-22
   3.99999990E-04  -4.09549344E-22
   4.49999992E-04  -1.11384969E-21
   5.00000024E-04  -2.70204222E-21
   5.49999997E-04  -5.99168034E-21
   6.00000028E-04  -1.23554167E-20
   6.50000002E-04  -2.39924512E-20
   6.99999975E-04  -4.42917963E-20
   7.50000007E-04  -7.83071336E-20
   7.99999980E-04  -1.33365413E-19
   8.50000011E-04  -2.19833484E-19
   8.99999985E-04  -3.52069550E-19
   9.50000016E-04  -5.49588156E-19
   1.00000005E-03  -8.38471111E-19
   1.04999996E-03  -1.25305683E-18
   1.09999999E-03  -1.83794528E-18
   1.15000003E-03  -2.65035803E-18
   1.20000006E-03  -3.76289010E-18
   1.24999997E-03  -5.26670694E-18
   1.30000000E-03  -7.27521561E-18
   1.35000004E-03  -9.92827749E-18
   1.39999995E-03  -1.33969973E-17
   1.44999998E-03  -1.78891439E-17
   1.50000001E-03  -2.36552661E-17
   1.55000004E-03  -3.09955527E-17
   1.59999996E-03  -4.02674765E-17
   1.64999999E-03  -5.18943371E-17
   1.70000002E-03  -6.63746797E-17
   1.75000005E-03  -8.42927286E-17
   1.79999997E-03  -1.06329866E-16
   1.85000000E-03  -1.33277233E-16
   1.90000003E-03  -1.66049467E-16
   1.94999995E-03  -2.05699754E-16
   2.00000009E-03  -2.53436122E-16
   2.05000001E-03  -3.10639169E-16
   2.09999993E-03  -3.78881252E-16
   2.15000007E-03  -4.59947043E-16
   2.19999999E-03  -5.55856001E-16
   2.24999990E-03  -6.68886037E-16
   2.30000005E-03  -8.01599159E-16
   2.34999997E-03  -9.56869086E-16
   2.40000011E-03  -1.13791052E-15
   2.45000003E-03  -1.34831012E-15
   2.49999994E-03  -1.59205941E-15
   2.55000009E-03  -1.87359050E-15
   2.60000001E-03  -2.19781291E-15
   2.64999992E-03  -2.57015313E-15
   2.70000007E-03  -2.99659674E-15
   2.74999999E-03  -3.48373089E-15
   2.79999990E-03  -4.03879158E-15
   2.85000005E-03  -4.66971212E-15
   2.89999996E-03  -5.38517247E-15
   2.95000011E-03  -6.19465476E-15
   3.00000003E-03  -7.10849701E-15
   3.04999994E-03  -8.13795205E-15
   3.10000009E-03  -9.29524808E-15
   3.15000000E-03  -1.05936505E-14
   3.19999992E-03  -1.20475309E-14
   3.25000007E-03  -1.36724289E-14
   3.29999998E-03  -1.54851311E-14
   3.34999990E-03  -1.75037376E-14
   3.40000005E-03  -1.97477397E-14
   3.44999996E-03  -2.22380945E-14
   3.50000011E-03  -2.49973060E-14
   3.55000002E-03  -2.80495164E-14
   3.59999994E-03  -3.14205855E-14
   3.65000009E-03  -3.51381691E-14
   3.70000000E-03  -3.92318251E-14
   3.74999992E-03  -4.37330869E-14
   3.80000006E-03  -4.86755682E-14
   3.84999998E-03  -5.40950612E-14
   3.89999989E-03  -6.00296248E-14
   3.94999981E-03  -6.65197064E-14
   4.00000019E-03  -7.36081863E-14
   4.05000011E-03  -8.13405468E-14
   4.10000002E-03  -8.97649468E-14
   4.14999994E-03  -9.89323234E-14
   4.19999985E-03  -1.08896494E-13
   4.25000023E-03  -1.19714270E-13
   4.30000015E-03  -1.31445568E-13
   4.35000006E-03  -1.44153515E-13
   4.39999998E-03  -1.57904560E-13
   4.44999989E-03  -1.72768551E-13
   4.49999981E-03  -1.88818918E-13
   4.55000019E-03  -2.06132691E-13
   4.60000010E-03  -2.24790686E-13
   4.65000002E-03  -2.44877523E-13
   4.69999993E-03  -2.66481824E-13
   4.74999985E-03  -2.89696218E-13
   4.80000023E-03  -3.14617608E-13
   4.85000014E-03  -3.41347068E-13
   4.90000006E-03  -3.69990063E-13
   4.94999997E-03  -4.00656477E-13
   4.99999989E-03  -4.33460830E-13
   5.04999980E-03  -4.68522248E-13
   5.10000018E-03  -5.05964574E-13
   5.15000010E-03  -5.45916394E-13
   5.20000001E-03  -5.88511282E-13
   5.24999993E-03  -6.33887691E-13
   5.29999984E-03  -6.82189168E-13
   5.35000023E-03  -7.33564197E-13
   5.40000014E-03  -7.88166570E-13
   5.45000006E-03  -8.46155123E-13
   5.49999997E-03  -9.07694059E-13
   5.54999989E-03  -9.72952730E-13
   5.59999980E-03  -1.04210585E-12
   5.65000018E-03  -1.11533341E-12
   5.70000010E-03  -1.19282080E-12
   5.75000001E-03  -1.27475862E-12
   5.79999993E-03  -1.36134290E-12
   5.84999984E-03  -1.45277464E-12
   5.90000022E-03  -1.54926072E-12
   5.95000014E-03  -1.65101266E-12
   6.00000005E-03  -1.75824752E-12
   6.04999997E-03  -1.87118745E-12
   6.09999988E-03  -1.99005938E-12
   6.14999980E-03  -2.11509564E-12
   6.20000018E-03  -2.24653282E-12
   6.25000009E-03  -2.38461291E-12
   6.30000001E-03  -2.52958266E-12
   6.34999992E-03  -2.68169211E-12
   6.39999984E-03  -2.84119690E-12
   6.45000022E-03  -3.00835637E-12
   6.50000013E-03  -3.18343355E-12
   6.55000005E-03  -3.36669538E-12
   6.59999996E-03  -3.55841333E-12
   6.64999988E-03  -3.75886041E-12
   6.69999979E-03  -3.96831439E-12
   6.75000018E-03  -4.18705478E-12
   6.80000009E-03  -4.41536391E-12
   6.85000001E-03  -4.65352626E-12
   6.89999992E-03  -4.90182808E-12
   6.94999984E-03  -5.16055731E-12
   7.00000022E-03  -5.43000324E-12
   7.05000013E-03  -5.71045511E-12
   7.10000005E-03  -6.00220351E-12
   7.14999996E-03  -6.30553899E-12
   7.19999988E-03  -6.62075039E-12
   7.24999979E-03  -6.94812654E-12
   7.30000017E-03  -7.28795496E-12
   7.35000009E-03  -7.64052016E-12
   7.40000000E-03  -8.00610619E-12
   7.44999992E-03  -8.38499149E-12
   7.49999983E-03  -8.77745186E-12
   7.55000021E-03  -9.18375966E-12
   7.60000013E-03  -9.60418117E-12
   7.65000004E-03  -1.00389775E-11
   7.69999996E-03  -1.04884053E-11
   7.74999987E-03  -1.09527110E-11
   7.79999979E-03  -1.14321374E-11
   7.84999970E-03  -1.19269152E-11
   7.89999962E-03  -1.24372682E-11
   7.95000046E-03  -1.29634116E-11
   8.00000038E-03  -1.35055465E-11
   8.05000030E-03  -1.40638647E-11
   8.10000021E-03  -1.46385456E-11
   8.15000013E-03  -1.52297567E-11
   8.20000004E-03  -1.58376489E-11
   8.24999996E-03  -1.64623610E-11
   8.29999987E-03  -1.71040092E-11
   8.34999979E-03  -1.77627045E-11
   8.39999970E-03  -1.84385320E-11
   8.44999962E-03  -1.91315592E-11
   8.50000046E-03  -1.98418348E-11
   8.55000038E-03  -2.05693882E-11
   8.60000029E-03  -2.13142230E-11
   8.65000021E-03  -2.20763234E-11
   8.70000012E-03  -2.28556479E-11
   8.75000004E-03  -2.36521358E-11
   8.79999995E-03  -2.44656916E-11
   8.84999987E-03  -2.52961974E-11
   8.89999978E-03  -2.61435092E-11
   8.94999970E-03  -2.70074518E-11
   8.99999961E-03  -2.78878171E-11
   9.05000046E-03  -2.87843690E-11
   9.10000037E-03  -2.96968387E-11
   9.15000029E-03  -3.06249227E-11
   9.20000020E-03  -3.15682827E-11
   9.25000012E-03  -3.25265370E-11
   9.30000003E-03  -3.34992797E-11
   9.34999995E-03  -3.44860598E-11
   9.39999986E-03  -3.54863881E-11
   9.44999978E-03  -3.64997338E-11
   9.49999969E-03  -3.75255209E-11
   9.54999961E-03  -3.85631423E-11
   9.60000046E-03  -3.96119353E-11
   9.65000037E-03  -4.06711956E-11
   9.70000029E-03  -4.17401703E-11
   9.75000020E-03  -4.28180685E-11
   9.80000012E-03  -4.39040332E-11
   9.85000003E-03  -4.49971796E-11
   9.89999995E-03  -4.60965571E-11
   9.94999986E-03  -4.72011701E-11
   9.99999978E-03  -4.83099671E-11
   1.00499997E-02  -4.94218451E-11
   1.00999996E-02  -5.05356486E-11
   1.01500005E-02  -5.16501633E-11
   1.02000004E-02  -5.27641160E-11
   1.02500003E-02  -5.38761848E-11
   1.03000002E-02  -5.49849888E-11
   1.03500001E-02  -5.60890882E-11
   1.04000000E-02  -5.71869739E-11
   1.04499999E-02  -5.82770915E-11
   1.04999999E-02  -5.93578103E-11
   1.05499998E-02  -6.04274547E-11
   1.05999997E-02  -6.14842829E-11
   1.06499996E-02  -6.25264840E-11
   1.07000005E-02  -6.35521913E-11
   1.07500004E-02  -6.45594689E-11
   1.08000003E-02  -6.55463253E-11
   1.08500002E-02  -6.65106997E-11
   1.09000001E-02  -6.74504688E-11
   1.09500000E-02  -6.83634538E-11
   1.09999999E-02  -6.92473995E-11
   1.10499999E-02  -7.00999953E-11
   1.10999998E-02  -7.09188611E-11
   1.11499997E-02  -7.17015544E-11
   1.11999996E-02  -7.24455912E-11
   1.12500004E-02  -7.31483901E-11
   1.13000004E-02  -7.38073214E-11
   1.13500003E-02  -7.44197065E-11
   1.14000002E-02  -7.49827977E-11
   1.14500001E-02  -7.54937848E-11
   1.15000000E-02  -7.59497881E-11
   1.15499999E-02  -7.63478863E-11
   1.15999999E-02  -7.66850888E-11
   1.16499998E-02  -7.69583633E-11
   1.16999997E-02  -7.71646011E-11
   1.17499996E-02  -7.73006728E-11
   1.18000004E-02  -7.73633727E-11
   1.18500004E-02  -7.73494463E-11
   1.19000003E-02  -7.72555908E-11
   1.19500002E-02  -7.70784617E-11
   1.20000001E-02  -7.68146727E-11
   1.20500000E-02  -7.64607822E-11
   1.20999999E-02  -7.60133276E-11
   1.21499998E-02  -7.54687771E-11
   1.21999998E-02  -7.48235918E-11
   1.22499997E-02  -7.40741912E-11
   1.22999996E-02  -7.32169672E-11
   1.23500004E-02  -7.22482768E-11
   1.24000004E-02  -7.11644632E-11
   1.24500003E-02  -6.99618488E-11
   1.25000002E-02  -6.86367144E-11
   1.25500001E-02  -6.71853476E-11
   1.26000000E-02  -6.56040292E-11
   1.26499999E-02  -6.38890260E-11
   1.26999998E-02  -6.20365842E-11
   1.27499998E-02  -6.00429775E-11
   1.27999997E-02  -5.79044764E-11
   1.28499996E-02  -5.56173614E-11
   1.29000004E-02  -5.31779169E-11
   1.29500004E-02  -5.05824514E-11
   1.30000003E-02  -4.78273081E-11
   1.30500002E-02  -4.49088405E-11
   1.31000001E-02  -4.18234440E-11
   1.31500000E-02  -3.85675485E-11
   1.31999999E-02  -3.51376393E-11
   1.32499998E-02  -3.15302333E-11
   1.32999998E-02  -2.77419129E-11
   1.33499997E-02  -2.37693146E-11
   1.33999996E-02  -1.96091511E-11
   1.34500004E-02  -1.52581957E-11
   1.35000004E-02  -1.07133122E-11
   1.35500003E-02  -5.97144122E-12
   1.36000002E-02  -1.02961465E-12
   1.36500001E-02   4.11503470E-12
   1.37000000E-02   9.46526624E-12
   1.37499999E-02   1.50237357E-11
   1.37999998E-02   2.07929767E-11
   1.38499998E-02   2.67753909E-11
   1.38999997E-02   3.29732526E-11
   1.39499996E-02   3.93886972E-11
   1.40000004E-02   4.60237161E-11
   1.40500003E-02   5.28801308E-11
   1.41000003E-02   5.99596137E-11
   1.41500002E-02   6.72636599E-11
   1.42000001E-02   7.47936019E-11
   1.42500000E-02   8.25505567E-11
   1.42999999E-02   9.05354680E-11
   1.43499998E-02   9.87490645E-11
   1.43999998E-02   1.07191866E-10
   1.44499997E-02   1.15864186E-10
   1.44999996E-02   1.24766100E-10
   1.45500004E-02   1.33897449E-10
   1.46000003E-02   1.43257822E-10
   1.46500003E-02   1.52846610E-10
   1.47000002E-02   1.62662842E-10
   1.47500001E-02   1.72705350E-10
   1.48000000E-02   1.82972665E-10
   1.48499999E-02   1.93463051E-10
   1.48999998E-02   2.04174455E-10
   1.49499997E-02   2.15104518E-10
   1.49999997E-02   2.26250560E-10
   1.50499996E-02   2.37609626E-10
   1.51000004E-02   2.49178428E-10
   1.51500003E-02   2.60953259E-10
   1.52000003E-02   2.72930151E-10
   1.52500002E-02   2.85104718E-10
   1.53000001E-02   2.97472269E-10
   1.53500000E-02   3.10027698E-10
   1.53999999E-02   3.22765564E-10
   1.54499998E-02   3.35679984E-10
   1.54999997E-02   3.48764712E-10
   1.55499997E-02   3.62013086E-10
   1.55999996E-02   3.75418086E-10
   1.56500004E-02   3.88972132E-10
   1.56999994E-02   4.02667372E-10
   1.57500003E-02   4.16495477E-10
   1.57999992E-02   4.30447622E-10
   1.58500001E-02   4.44514592E-10
   1.59000009E-02   4.58686700E-10
   1.59499999E-02   4.72953787E-10
   1.60000008E-02   4.87305196E-10
   1.60499997E-02   5.01729935E-10
   1.61000006E-02   5.16216347E-10
   1.61499996E-02   5.30752386E-10
   1.62000004E-02   5.45325507E-10
   1.62499994E-02   5.59922719E-10
   1.63000003E-02   5.74530368E-10
   1.63499992E-02   5.89134519E-10
   1.64000001E-02   6.03720629E-10
   1.64500009E-02   6.18273543E-10
   1.64999999E-02   6.32777775E-10
   1.65500008E-02   6.47217169E-10
   1.65999997E-02   6.61575128E-10
   1.66500006E-02   6.75834444E-10
   1.66999996E-02   6.89977520E-10
   1.67500004E-02   7.03986092E-10
   1.67999994E-02   7.17841508E-10
   1.68500002E-02   7.31524452E-10
   1.68999992E-02   7.45015161E-10
   1.69500001E-02   7.58293373E-10
   1.70000009E-02   7.71338216E-10
   1.70499999E-02   7.84128318E-10
   1.71000008E-02   7.96641753E-10
   1.71499997E-02   8.08856260E-10
   1.72000006E-02   8.20748747E-10
   1.72499996E-02   8.32295788E-10
   1.73000004E-02   8.43473458E-10
   1.73499994E-02   8.54257276E-10
   1.74000002E-02   8.64622429E-10
   1.74499992E-02   8.74543271E-10
   1.75000001E-02   8.83993823E-10
   1.75500009E-02   8.92947771E-10
   1.75999999E-02   9.01378194E-10
   1.76500008E-02   9.09257669E-10
   1.76999997E-02   9.16558385E-10
   1.77500006E-02   9.23252086E-10
   1.77999996E-02   9.29309962E-10
   1.78500004E-02   9.34702982E-10
   1.78999994E-02   9.39401446E-10
   1.79500002E-02   9.43375600E-10
   1.79999992E-02   9.46594914E-10
   1.80500001E-02   9.49028744E-10
   1.81000009E-02   9.50645784E-10
   1.81499999E-02   9.51414836E-10
   1.82000007E-02   9.51304036E-10
   1.82499997E-02   9.50281520E-10
   1.83000006E-02   9.48314649E-10
   1.83499996E-02   9.45370782E-10
   1.84000004E-02   9.41416944E-10
   1.84499994E-02   9.36420164E-10
   1.85000002E-02   9.30346911E-10
   1.85499992E-02   9.23163712E-10
   1.86000001E-02   9.14836817E-10
   1.86500009E-02   9.05332309E-10
   1.86999999E-02   8.94616214E-10
   1.87500007E-02   8.82654450E-10
   1.87999997E-02   8.69412708E-10
   1.88500006E-02   8.54856685E-10
   1.88999996E-02   8.38952186E-10
   1.89500004E-02   8.21664958E-10
   1.89999994E-02   8.02960642E-10
   1.90500002E-02   7.82805210E-10
   1.90999992E-02   7.61164520E-10
   1.91500001E-02   7.38004546E-10
   1.92000009E-02   7.13291537E-10
   1.92499999E-02   6.86991852E-10
   1.93000007E-02   6.59072130E-10
   1.93499997E-02   6.29499231E-10
   1.94000006E-02   5.98240235E-10
   1.94499996E-02   5.65262670E-10
   1.95000004E-02   5.30534339E-10
   1.95499994E-02   4.94023378E-10
   1.96000002E-02   4.55698645E-10
   1.96499992E-02   4.15529139E-10
   1.97000001E-02   3.73484577E-10
   1.97500009E-02   3.29535177E-10
   1.97999999E-02   2.83651713E-10
   1.98500007E-02   2.35805681E-10
   1.98999997E-02   1.85969157E-10
   1.99500006E-02   1.34114997E-10
   1.99999996E-02   8.02167915E-11
   2.00500004E-02   2.42489848E-11
   2.00999994E-02  -3.38131606E-11
   2.01500002E-02  -9.39934935E-11
   2.01999992E-02  -1.56314919E-10
   2.02500001E-02  -2.20799323E-10
   2.03000009E-02  -2.87467578E-10
   2.03499999E-02  -3.56339430E-10
   2.04000007E-02  -4.27433616E-10
   2.04499997E-02  -5.00767594E-10
   2.05000006E-02  -5.76357684E-10
   2.05499995E-02  -6.54218790E-10
   2.06000004E-02  -7.34364625E-10
   2.06499994E-02  -8.16807511E-10
   2.07000002E-02  -9.01558328E-10
   2.07499992E-02  -9.88626403E-10
   2.08000001E-02  -1.07801978E-09
   2.08500009E-02  -1.16974463E-09
   2.08999999E-02  -1.26380573E-09
   2.09500007E-02  -1.36020628E-09
   2.09999997E-02  -1.45894741E-09
   2.10500006E-02  -1.56002877E-09
   2.10999995E-02  -1.66344805E-09
   2.11500004E-02  -1.76920101E-09
   2.11999994E-02  -1.87728189E-09
   2.12500002E-02  -1.98768246E-09
   2.12999992E-02  -2.10039297E-09
   2.13500001E-02  -2.21540142E-09
   2.14000009E-02  -2.33269315E-09
   2.14499999E-02  -2.45225196E-09
   2.15000007E-02  -2.57405963E-09
   2.15499997E-02  -2.69809508E-09
   2.16000006E-02  -2.82433521E-09
   2.16499995E-02  -2.95275449E-09
   2.17000004E-02  -3.08332515E-09
   2.17499994E-02  -3.21601679E-09
   2.18000002E-02  -3.35079653E-09
   2.18499992E-02  -3.48762930E-09
   2.19000001E-02  -3.62647712E-09
   2.19500009E-02  -3.76729936E-09
   2.19999999E-02  -3.91005273E-09
   2.20500007E-02  -4.05469169E-09
   2.20999997E-02  -4.20116697E-09
   2.21500006E-02  -4.34942793E-09
   2.21999995E-02  -4.49941950E-09
   2.22500004E-02  -4.65108574E-09
   2.22999994E-02  -4.80436624E-09
   2.23500002E-02  -4.95919794E-09
   2.23999992E-02  -5.11551512E-09
   2.24500000E-02  -5.27324895E-09
   2.25000009E-02  -5.43232748E-09
   2.25499999E-02  -5.59267566E-09
   2.26000007E-02  -5.75421577E-09
   2.26499997E-02  -5.91686700E-09
   2.27000006E-02  -6.08054451E-09
   2.27499995E-02  -6.24516128E-09
   2.28000004E-02  -6.41062758E-09
   2.28499994E-02  -6.57684973E-09
   2.29000002E-02  -6.74373002E-09
   2.29499992E-02  -6.91116941E-09
   2.30000000E-02  -7.07906311E-09
   2.30500009E-02  -7.24730498E-09
   2.30999999E-02  -7.41578576E-09
   2.31500007E-02  -7.58439267E-09
   2.31999997E-02  -7.75300979E-09
   2.32500006E-02  -7.92151589E-09
   2.32999995E-02  -8.08979017E-09
   2.33500004E-02  -8.25770474E-09
   2.33999994E-02  -8.42513082E-09
   2.34500002E-02  -8.59193783E-09
   2.34999992E-02  -8.75798722E-09
   2.35500000E-02  -8.92314134E-09
   2.36000009E-02  -9.08725717E-09
   2.36499999E-02  -9.25019084E-09
   2.37000007E-02  -9.41179312E-09
   2.37499997E-02  -9.57191126E-09
   2.38000005E-02  -9.73039160E-09
   2.38499995E-02  -9.88707693E-09
   2.39000004E-02  -1.00418047E-08
   2.39499994E-02  -1.01944115E-08
   2.40000002E-02  -1.03447304E-08
   2.40499992E-02  -1.04925926E-08
   2.41000000E-02  -1.06378240E-08
   2.41500009E-02  -1.07802496E-08
   2.41999999E-02  -1.09196918E-08
   2.42500007E-02  -1.10559677E-08
   2.42999997E-02  -1.11888943E-08
   2.43500005E-02  -1.13182841E-08
   2.43999995E-02  -1.14439498E-08
   2.44500004E-02  -1.15656986E-08
   2.44999994E-02  -1.16833379E-08
   2.45500002E-02  -1.17966703E-08
   2.45999992E-02  -1.19054970E-08
   2.46500000E-02  -1.20096173E-08
   2.47000009E-02  -1.21088277E-08
   2.47499999E-02  -1.22029258E-08
   2.48000007E-02  -1.22917019E-08
   2.48499997E-02  -1.23749473E-08
   2.49000005E-02  -1.24524533E-08
   2.49499995E-02  -1.25240067E-08
   2.50000004E-02  -1.25893944E-08
   2.50499994E-02  -1.26484005E-08
   2.51000002E-02  -1.27008093E-08
   2.51499992E-02  -1.27464022E-08
   2.52000000E-02  -1.27849615E-08
   2.52500009E-02  -1.28162672E-08
   2.52999999E-02  -1.28400979E-08
   2.53500007E-02  -1.28562325E-08
   2.53999997E-02  -1.28644491E-08
   2.54500005E-02  -1.28645281E-08
   2.54999995E-02  -1.28562441E-08
   2.55500004E-02  -1.28393731E-08
   2.55999994E-02  -1.28136941E-08
   2.56500002E-02  -1.27789841E-08
   2.56999992E-02  -1.27350210E-08
   2.57500000E-02  -1.26815811E-08
   2.58000009E-02  -1.26184441E-08
   2.58499999E-02  -1.25453905E-08
   2.59000007E-02  -1.24621975E-08
   2.59499997E-02  -1.23686492E-08
   2.60000005E-02  -1.22645263E-08
   2.60499995E-02  -1.21496138E-08
   2.61000004E-02  -1.20236958E-08
   2.61499994E-02  -1.18865611E-08
   2.62000002E-02  -1.17379990E-08
   2.62499992E-02  -1.15778001E-08
   2.63000000E-02  -1.14057572E-08
   2.63500009E-02  -1.12216680E-08
   2.63999999E-02  -1.10253318E-08
   2.64500007E-02  -1.08165485E-08
   2.64999997E-02  -1.05951239E-08
   2.65500005E-02  -1.03608677E-08
   2.65999995E-02  -1.01135891E-08
   2.66500004E-02  -9.85310589E-09
   2.66999993E-02  -9.57923607E-09
   2.67500002E-02  -9.29180466E-09
   2.67999992E-02  -8.99063668E-09
   2.68500000E-02  -8.67556693E-09
   2.69000009E-02  -8.34643110E-09
   2.69499999E-02  -8.00307198E-09
   2.70000007E-02  -7.64533681E-09
   2.70499997E-02  -7.27307770E-09
   2.71000005E-02  -6.88615343E-09
   2.71499995E-02  -6.48442766E-09
   2.72000004E-02  -6.06777073E-09
   2.72499993E-02  -5.63605962E-09
   2.73000002E-02  -5.18917576E-09
   2.73499992E-02  -4.72701034E-09
   2.74000000E-02  -4.24945901E-09
   2.74500009E-02  -3.75642539E-09
   2.74999999E-02  -3.24782090E-09
   2.75500007E-02  -2.72356426E-09
   2.75999997E-02  -2.18358154E-09
   2.76500005E-02  -1.62780789E-09
   2.76999995E-02  -1.05618581E-09
   2.77500004E-02  -4.68666661E-10
   2.77999993E-02   1.34789652E-10
   2.78500002E-02   7.54214080E-10
   2.78999992E-02   1.38962863E-09
   2.79500000E-02   2.04104600E-09
   2.80000009E-02   2.70846900E-09
   2.80499998E-02   3.39189121E-09
   2.81000007E-02   4.09129619E-09
   2.81499997E-02   4.80665596E-09
   2.82000005E-02   5.53793411E-09
   2.82499995E-02   6.28508223E-09
   2.83000004E-02   7.04804171E-09
   2.83499993E-02   7.82674281E-09
   2.84000002E-02   8.62110472E-09
   2.84499992E-02   9.43103462E-09
   2.85000000E-02   1.02564286E-08
   2.85500009E-02   1.10971721E-08
   2.85999998E-02   1.19531371E-08
   2.86500007E-02   1.28241826E-08
   2.86999997E-02   1.37101583E-08
   2.87500005E-02   1.46108992E-08
   2.87999995E-02   1.55262274E-08
   2.88500004E-02   1.64559548E-08
   2.88999993E-02   1.73998753E-08
   2.89500002E-02   1.83577740E-08
   2.89999992E-02   1.93294216E-08
   2.90500000E-02   2.03145785E-08
   2.91000009E-02   2.13129852E-08
   2.91499998E-02   2.23243717E-08
   2.92000007E-02   2.33484556E-08
   2.92499997E-02   2.43849403E-08
   2.93000005E-02   2.54335131E-08
   2.93499995E-02   2.64938471E-08
   2.94000003E-02   2.75656031E-08
   2.94499993E-02   2.86484312E-08
   2.95000002E-02   2.97419600E-08
   2.95499992E-02   3.08458077E-08
   2.96000000E-02   3.19595728E-08
   2.96500009E-02   3.30828449E-08
   2.96999998E-02   3.42152013E-08
   2.97500007E-02   3.53561980E-08
   2.97999997E-02   3.65053765E-08
   2.98500005E-02   3.76622680E-08
   2.98999995E-02   3.88263857E-08
   2.99500003E-02   3.99972322E-08
   2.99999993E-02   4.11742924E-08
   3.00500002E-02   4.23570299E-08
   3.00999992E-02   4.35449046E-08
   3.01500000E-02   4.47373587E-08
   3.02000009E-02   4.59338203E-08
   3.02499998E-02   4.71336925E-08
   3.03000007E-02   4.83363785E-08
   3.03499997E-02   4.95412600E-08
   3.04000005E-02   5.07476976E-08
   3.04499995E-02   5.19550518E-08
   3.05000003E-02   5.31626547E-08
   3.05499993E-02   5.43698420E-08
   3.06000002E-02   5.55759208E-08
   3.06499992E-02   5.67801806E-08
   3.07000000E-02   5.79819144E-08
   3.07500008E-02   5.91803797E-08
   3.07999998E-02   6.03748376E-08
   3.08500007E-02   6.15645348E-08
   3.08999997E-02   6.27486898E-08
   3.09500005E-02   6.39265281E-08
   3.09999995E-02   6.50972467E-08
   3.10500003E-02   6.62600428E-08
   3.10999993E-02   6.74140850E-08
   3.11500002E-02   6.85585562E-08
   3.11999992E-02   6.96926108E-08
   3.12500000E-02   7.08153678E-08
   3.13000008E-02   7.19259816E-08
   3.13500017E-02   7.30235641E-08
   3.13999988E-02   7.41072199E-08
   3.14499997E-02   7.51760680E-08
   3.15000005E-02   7.62291776E-08
   3.15500014E-02   7.72656392E-08
   3.15999985E-02   7.82845149E-08
   3.16499993E-02   7.92848738E-08
   3.17000002E-02   8.02657567E-08
   3.17500010E-02   8.12262186E-08
   3.18000019E-02   8.21652932E-08
   3.18499990E-02   8.30820071E-08
   3.18999998E-02   8.39753724E-08
   3.19500007E-02   8.48444230E-08
   3.20000015E-02   8.56881570E-08
   3.20499986E-02   8.65055796E-08
   3.20999995E-02   8.72956747E-08
   3.21500003E-02   8.80574547E-08
   3.22000012E-02   8.87898963E-08
   3.22499983E-02   8.94919836E-08
   3.22999991E-02   9.01627075E-08
   3.23500000E-02   9.08010236E-08
   3.24000008E-02   9.14059299E-08
   3.24500017E-02   9.19763821E-08
   3.24999988E-02   9.25113497E-08
   3.25499997E-02   9.30098167E-08
   3.26000005E-02   9.34707529E-08
   3.26500013E-02   9.38931208E-08
   3.26999985E-02   9.42758973E-08
   3.27499993E-02   9.46180592E-08
   3.28000002E-02   9.49185761E-08
   3.28500010E-02   9.51764321E-08
   3.29000019E-02   9.53906039E-08
   3.29499990E-02   9.55600754E-08
   3.29999998E-02   9.56838448E-08
   3.30500007E-02   9.57609032E-08
   3.31000015E-02   9.57902557E-08
   3.31499986E-02   9.57709076E-08
   3.31999995E-02   9.57018784E-08
   3.32500003E-02   9.55821875E-08
   3.33000012E-02   9.54108685E-08
   3.33499983E-02   9.51869623E-08
   3.33999991E-02   9.49095167E-08
   3.34500000E-02   9.45776009E-08
   3.35000008E-02   9.41902840E-08
   3.35500017E-02   9.37466567E-08
   3.35999988E-02   9.32458164E-08
   3.36499996E-02   9.26868751E-08
   3.37000005E-02   9.20689587E-08
   3.37500013E-02   9.13912004E-08
   3.37999985E-02   9.06527688E-08
   3.38499993E-02   8.98528398E-08
   3.39000002E-02   8.89905962E-08
   3.39500010E-02   8.80652564E-08
   3.40000018E-02   8.70760388E-08
   3.40499990E-02   8.60221974E-08
   3.40999998E-02   8.49030002E-08
   3.41500007E-02   8.37177367E-08
   3.42000015E-02   8.24657178E-08
   3.42499986E-02   8.11462755E-08
   3.42999995E-02   7.97587703E-08
   3.43500003E-02   7.83025840E-08
   3.44000012E-02   7.67771127E-08
   3.44499983E-02   7.51817950E-08
   3.44999991E-02   7.35160910E-08
   3.45500000E-02   7.17794819E-08
   3.46000008E-02   6.99714775E-08
   3.46500017E-02   6.80916159E-08
   3.46999988E-02   6.61394779E-08
   3.47499996E-02   6.41146656E-08
   3.48000005E-02   6.20167953E-08
   3.48500013E-02   5.98455401E-08
   3.48999985E-02   5.76005981E-08
   3.49499993E-02   5.52816886E-08
   3.50000001E-02   5.28885735E-08
   3.50500010E-02   5.04210540E-08
   3.51000018E-02   4.78789559E-08
   3.51499990E-02   4.52621443E-08
   3.51999998E-02   4.25705231E-08
   3.52500007E-02   3.98040321E-08
   3.53000015E-02   3.69626498E-08
   3.53499986E-02   3.40463870E-08
   3.53999995E-02   3.10553041E-08
   3.54500003E-02   2.79894881E-08
   3.55000012E-02   2.48490757E-08
   3.55499983E-02   2.16342428E-08
   3.55999991E-02   1.83452045E-08
   3.56500000E-02   1.49822146E-08
   3.57000008E-02   1.15455778E-08
   3.57500017E-02   8.03563616E-09
   3.57999988E-02   4.45277415E-09
   3.58499996E-02   7.97425070E-10
   3.59000005E-02  -2.92993763E-09
   3.59500013E-02  -6.72879441E-09
   3.59999985E-02  -1.05985789E-08
   3.60499993E-02  -1.45386796E-08
   3.61000001E-02  -1.85484392E-08
   3.61500010E-02  -2.26271535E-08
   3.62000018E-02  -2.67740710E-08
   3.62499990E-02  -3.09883923E-08
   3.62999998E-02  -3.52692702E-08
   3.63500006E-02  -3.96158093E-08
   3.64000015E-02  -4.40270718E-08
   3.64499986E-02  -4.85020628E-08
   3.64999995E-02  -5.30397379E-08
   3.65500003E-02  -5.76390065E-08
   3.66000012E-02  -6.22987244E-08
   3.66499983E-02  -6.70177087E-08
   3.66999991E-02  -7.17947231E-08
   3.67500000E-02  -7.66284742E-08
   3.68000008E-02  -8.15176193E-08
   3.68500017E-02  -8.64607728E-08
   3.68999988E-02  -9.14564993E-08
   3.69499996E-02  -9.65032925E-08
   3.70000005E-02  -1.01599625E-07
   3.70500013E-02  -1.06743883E-07
   3.70999984E-02  -1.11934455E-07
   3.71499993E-02  -1.17169641E-07
   3.72000001E-02  -1.22447688E-07
   3.72500010E-02  -1.27766810E-07
   3.73000018E-02  -1.33125141E-07
   3.73499990E-02  -1.38520832E-07
   3.73999998E-02  -1.43951894E-07
   3.74500006E-02  -1.49416366E-07
   3.75000015E-02  -1.54912200E-07
   3.75499986E-02  -1.60437295E-07
   3.75999995E-02  -1.65989533E-07
   3.76500003E-02  -1.71566711E-07
   3.77000012E-02  -1.77166598E-07
   3.77499983E-02  -1.82786920E-07
   3.77999991E-02  -1.88425318E-07
   3.78500000E-02  -1.94079433E-07
   3.79000008E-02  -1.99746850E-07
   3.79500017E-02  -2.05425110E-07
   3.79999988E-02  -2.11111683E-07
   3.80499996E-02  -2.16804011E-07
   3.81000005E-02  -2.22499480E-07
   3.81500013E-02  -2.28195447E-07
   3.81999984E-02  -2.33889239E-07
   3.82499993E-02  -2.39578100E-07
   3.83000001E-02  -2.45259287E-07
   3.83500010E-02  -2.50929986E-07
   3.84000018E-02  -2.56587299E-07
   3.84499989E-02  -2.62228383E-07
   3.84999998E-02  -2.67850311E-07
   3.85500006E-02  -2.73450098E-07
   3.86000015E-02  -2.79024732E-07
   3.86499986E-02  -2.84571172E-07
   3.86999995E-02  -2.90086376E-07
   3.87500003E-02  -2.95567190E-07
   3.88000011E-02  -3.01010573E-07
   3.88499983E-02  -3.06413227E-07
   3.88999991E-02  -3.11772027E-07
   3.89500000E-02  -3.17083760E-07
   3.90000008E-02  -3.22345130E-07
   3.90500017E-02  -3.27552868E-07
   3.90999988E-02  -3.32703650E-07
   3.91499996E-02  -3.37794148E-07
   3.92000005E-02  -3.42821011E-07
   3.92500013E-02  -3.47780855E-07
   3.92999984E-02  -3.52670298E-07
   3.93499993E-02  -3.57485902E-07
   3.94000001E-02  -3.62224256E-07
   3.94500010E-02  -3.66881892E-07
   3.95000018E-02  -3.71455343E-07
   3.95499989E-02  -3.75941170E-07
   3.95999998E-02  -3.80335820E-07
   3.96500006E-02  -3.84635854E-07
   3.97000015E-02  -3.88837691E-07
   3.97499986E-02  -3.92937892E-07
   3.97999994E-02  -3.96932876E-07
   3.98500003E-02  -4.00819175E-07
   3.99000011E-02  -4.04593180E-07
   3.99499983E-02  -4.08251367E-07
   3.99999991E-02  -4.11790268E-07
   4.00500000E-02  -4.15206330E-07
   4.01000008E-02  -4.18496001E-07
   4.01500016E-02  -4.21655756E-07
   4.01999988E-02  -4.24682185E-07
   4.02499996E-02  -4.27571678E-07
   4.03000005E-02  -4.30320796E-07
   4.03500013E-02  -4.32926043E-07
   4.03999984E-02  -4.35384010E-07
   4.04499993E-02  -4.37691256E-07
   4.05000001E-02  -4.39844257E-07
   4.05500010E-02  -4.41839688E-07
   4.06000018E-02  -4.43674139E-07
   4.06499989E-02  -4.45344284E-07
   4.06999998E-02  -4.46846769E-07
   4.07500006E-02  -4.48178298E-07
   4.08000015E-02  -4.49335602E-07
   4.08499986E-02  -4.50315412E-07
   4.08999994E-02  -4.51114545E-07
   4.09500003E-02  -4.51729818E-07
   4.10000011E-02  -4.52158133E-07
   4.10499983E-02  -4.52396336E-07
   4.10999991E-02  -4.52441412E-07
   4.11499999E-02  -4.52290351E-07
   4.12000008E-02  -4.51940195E-07
   4.12500016E-02  -4.51388047E-07
   4.12999988E-02  -4.50630949E-07
   4.13499996E-02  -4.49666203E-07
   4.14000005E-02  -4.48490994E-07
   4.14500013E-02  -4.47102622E-07
   4.14999984E-02  -4.45498443E-07
   4.15499993E-02  -4.43675873E-07
   4.16000001E-02  -4.41632352E-07
   4.16500010E-02  -4.39365436E-07
   4.17000018E-02  -4.36872710E-07
   4.17499989E-02  -4.34151929E-07
   4.17999998E-02  -4.31200789E-07
   4.18500006E-02  -4.28017074E-07
   4.19000015E-02  -4.24598710E-07
   4.19499986E-02  -4.20943564E-07
   4.19999994E-02  -4.17049705E-07
   4.20500003E-02  -4.12915313E-07
   4.21000011E-02  -4.08538511E-07
   4.21499982E-02  -4.03917596E-07
   4.21999991E-02  -3.99050975E-07
   4.22499999E-02  -3.93937057E-07
   4.23000008E-02  -3.88574364E-07
   4.23500016E-02  -3.82961531E-07
   4.23999988E-02  -3.77097280E-07
   4.24499996E-02  -3.70980416E-07
   4.25000004E-02  -3.64609832E-07
   4.25500013E-02  -3.57984561E-07
   4.25999984E-02  -3.51103694E-07
   4.26499993E-02  -3.43966406E-07
   4.27000001E-02  -3.36572015E-07
   4.27500010E-02  -3.28919924E-07
   4.28000018E-02  -3.21009651E-07