   0.00000000       0.00000000    
   4.99999987E-05   0.00000000    
   9.99999975E-05   0.00000000    
   1.50000007E-04   0.00000000    
   1.99999995E-04   4.05427482E-26
   2.50000012E-04   2.19406219E-24
   3.00000014E-04   2.15471661E-23
   3.49999988E-04   1.21163734E-22
   3.99999990E-04   4.96584229E-22
   4.49999992E-04   1.64845353E-21
   5.00000024E-04   4.69726951E-21
   5.49999997E-04   1.19118225E-20
   6.00000028E-04   2.75427686E-20
   6.50000002E-04   5.90744735E-20
   6.99999975E-04   1.19032014E-19
   7.50000007E-04   2.27505946E-19
   7.99999980E-04   4.15584509E-19
   8.50000011E-04   7.29911772E-19
   8.99999985E-04   1.23862149E-18
   9.50000016E-04   2.03892742E-18
   1.00000005E-03   3.26668224E-18
   1.04999996E-03   5.10825801E-18
   1.09999999E-03   7.81512964E-18
   1.15000003E-03   1.17215753E-17
   1.20000006E-03   1.72659626E-17
   1.24999997E-03   2.50161073E-17
   1.30000000E-03   3.56992359E-17
   1.35000004E-03   5.02371304E-17
   1.39999995E-03   6.97870776E-17
   1.44999998E-03   9.57892024E-17
   1.50000001E-03   1.30021000E-16
   1.55000004E-03   1.74659729E-16
   1.59999996E-03   2.32353314E-16
   1.64999999E-03   3.06300799E-16
   1.70000002E-03   4.00343055E-16
   1.75000005E-03   5.19064543E-16
   1.79999997E-03   6.67907025E-16
   1.85000000E-03   8.53296862E-16
   1.90000003E-03   1.08278572E-15
   1.94999995E-03   1.36520641E-15
   2.00000009E-03   1.71084477E-15
   2.05000001E-03   2.13162893E-15
   2.09999993E-03   2.64133609E-15
   2.15000007E-03   3.25582058E-15
   2.19999999E-03   3.99325933E-15
   2.24999990E-03   4.87442177E-15
   2.30000005E-03   5.92296089E-15
   2.34999997E-03   7.16573102E-15
   2.40000011E-03   8.63312666E-15
   2.45000003E-03   1.03594501E-14
   2.49999994E-03   1.23833100E-14
   2.55000009E-03   1.47480430E-14
   2.60000001E-03   1.75021673E-14
   2.64999992E-03   2.06998742E-14
   2.70000007E-03   2.44015386E-14
   2.74999999E-03   2.86742845E-14
   2.79999990E-03   3.35925644E-14
   2.85000005E-03   3.92387810E-14
   2.89999996E-03   4.57039632E-14
   2.95000011E-03   5.30884507E-14
   3.00000003E-03   6.15026422E-14
   3.04999994E-03   7.10677787E-14
   3.10000009E-03   8.19167799E-14
   3.15000000E-03   9.41950782E-14
   3.19999992E-03   1.08061556E-13
   3.25000007E-03   1.23689524E-13
   3.29999998E-03   1.41267653E-13
   3.34999990E-03   1.61001082E-13
   3.40000005E-03   1.83112518E-13
   3.44999996E-03   2.07843345E-13
   3.50000011E-03   2.35454831E-13
   3.55000002E-03   2.66229394E-13
   3.59999994E-03   3.00471833E-13
   3.65000009E-03   3.38510741E-13
   3.70000000E-03   3.80699893E-13
   3.74999992E-03   4.27419629E-13
   3.80000006E-03   4.79078474E-13
   3.84999998E-03   5.36114501E-13
   3.89999989E-03   5.98997035E-13
   3.94999981E-03   6.68228331E-13
   4.00000019E-03   7.44345178E-13
   4.05000011E-03   8.27920740E-13
   4.10000002E-03   9.19566398E-13
   4.14999994E-03   1.01993327E-12
   4.19999985E-03   1.12971449E-12
   4.25000023E-03   1.24964720E-12
   4.30000015E-03   1.38051398E-12
   4.35000006E-03   1.52314565E-12
   4.39999998E-03   1.67842238E-12
   4.44999989E-03   1.84727646E-12
   4.49999981E-03   2.03069506E-12
   4.55000019E-03   2.22972118E-12
   4.60000010E-03   2.44545595E-12
   4.65000002E-03   2.67906205E-12
   4.69999993E-03   2.93176486E-12
   4.74999985E-03   3.20485565E-12
   4.80000023E-03   3.49969294E-12
   4.85000014E-03   3.81770570E-12
   4.90000006E-03   4.16039555E-12
   4.94999997E-03   4.52933871E-12
   4.99999989E-03   4.92619010E-12
   5.04999980E-03   5.35268227E-12
   5.10000018E-03   5.81063106E-12
   5.15000010E-03   6.30193857E-12
   5.20000001E-03   6.82859021E-12
   5.24999993E-03   7.39266461E-12
   5.29999984E-03   7.99633103E-12
   5.35000023E-03   8.64185199E-12
   5.40000014E-03   9.33158932E-12
   5.45000006E-03   1.00680011E-11
   5.49999997E-03   1.08536496E-11
   5.54999989E-03   1.16911984E-11
   5.59999980E-03   1.25834169E-11
   5.65000018E-03   1.35331867E-11
   5.70000010E-03   1.45434940E-11
   5.75000001E-03   1.56174431E-11
   5.79999993E-03   1.67582476E-11
   5.84999984E-03   1.79692389E-11
   5.90000022E-03   1.92538711E-11
   5.95000014E-03   2.06157105E-11
   6.00000005E-03   2.20584506E-11
   6.04999997E-03   2.35859093E-11
   6.09999988E-03   2.52020228E-11
   6.14999980E-03   2.69108624E-11
   6.20000018E-03   2.87166194E-11
   6.25000009E-03   3.06236148E-11
   6.30000001E-03   3.26362964E-11
   6.34999992E-03   3.47592545E-11
   6.39999984E-03   3.69972039E-11
   6.45000022E-03   3.93549845E-11
   6.50000013E-03   4.18375751E-11
   6.55000005E-03   4.44500825E-11
   6.59999996E-03   4.71977492E-11
   6.64999988E-03   5.00859527E-11
   6.69999979E-03   5.31201923E-11
   6.75000018E-03   5.63061056E-11
   6.80000009E-03   5.96494590E-11
   6.85000001E-03   6.31561470E-11
   6.89999992E-03   6.68321926E-11
   6.94999984E-03   7.06837436E-11
   7.00000022E-03   7.47170659E-11
   7.05000013E-03   7.89385710E-11
   7.10000005E-03   8.33547745E-11
   7.14999996E-03   8.79722961E-11
   7.19999988E-03   9.27978944E-11
   7.24999979E-03   9.78384318E-11
   7.30000017E-03   1.03100875E-10
   7.35000009E-03   1.08592281E-10
   7.40000000E-03   1.14319838E-10
   7.44999992E-03   1.20290819E-10
   7.49999983E-03   1.26512564E-10
   7.55000021E-03   1.32992534E-10
   7.60000013E-03   1.39738277E-10
   7.65000004E-03   1.46757342E-10
   7.69999996E-03   1.54057433E-10
   7.74999987E-03   1.61646266E-10
   7.79999979E-03   1.69531625E-10
   7.84999970E-03   1.77721352E-10
   7.89999962E-03   1.86223328E-10
   7.95000046E-03   1.95045438E-10
   8.00000038E-03   2.04195633E-10
   8.05000030E-03   2.13681836E-10
   8.10000021E-03   2.23512014E-10
   8.15000013E-03   2.33694092E-10
   8.20000004E-03   2.44236020E-10
   8.24999996E-03   2.55145682E-10
   8.29999987E-03   2.66430933E-10
   8.34999979E-03   2.78099599E-10
   8.39999970E-03   2.90159452E-10
   8.44999962E-03   3.02618125E-10
   8.50000046E-03   3.15483334E-10
   8.55000038E-03   3.28762489E-10
   8.60000029E-03   3.42463002E-10
   8.65000021E-03   3.56592117E-10
   8.70000012E-03   3.71157022E-10
   8.75000004E-03   3.86164600E-10
   8.79999995E-03   4.01621736E-10
   8.84999987E-03   4.17534979E-10
   8.89999978E-03   4.33910741E-10
   8.94999970E-03   4.50755239E-10
   8.99999961E-03   4.68074413E-10
   9.05000046E-03   4.85873952E-10
   9.10000037E-03   5.04159270E-10
   9.15000029E-03   5.22935528E-10
   9.20000020E-03   5.42207612E-10
   9.25000012E-03   5.61979852E-10
   9.30000003E-03   5.82256354E-10
   9.34999995E-03   6.03041062E-10
   9.39999986E-03   6.24337360E-10
   9.44999978E-03   6.46148024E-10
   9.49999969E-03   6.68475664E-10
   9.54999961E-03   6.91322388E-10
   9.60000046E-03   7.14689807E-10
   9.65000037E-03   7.38578976E-10
   9.70000029E-03   7.62990504E-10
   9.75000020E-03   7.87924448E-10
   9.80000012E-03   8.13380252E-10
   9.85000003E-03   8.39356695E-10
   9.89999995E-03   8.65852112E-10
   9.94999986E-03   8.92864060E-10
   9.99999978E-03   9.20389542E-10
   1.00499997E-02   9.48424783E-10
   1.00999996E-02   9.76965175E-10
   1.01500005E-02   1.00600572E-09
   1.02000004E-02   1.03554043E-09
   1.02500003E-02   1.06556231E-09
   1.03000002E-02   1.09606402E-09
   1.03500001E-02   1.12703702E-09
   1.04000000E-02   1.15847199E-09
   1.04499999E-02   1.19035881E-09
   1.04999999E-02   1.22268617E-09
   1.05499998E-02   1.25544219E-09
   1.05999997E-02   1.28861377E-09
   1.06499996E-02   1.32218680E-09
   1.07000005E-02   1.35614631E-09
   1.07500004E-02   1.39047618E-09
   1.08000003E-02   1.42515899E-09
   1.08500002E-02   1.46017665E-09
   1.09000001E-02   1.49550972E-09
   1.09500000E-02   1.53113733E-09
   1.09999999E-02   1.56703794E-09
   1.10499999E-02   1.60318847E-09
   1.10999998E-02   1.63956471E-09
   1.11499997E-02   1.67614123E-09
   1.11999996E-02   1.71289116E-09
   1.12500004E-02   1.74978632E-09
   1.13000004E-02   1.78679749E-09
   1.13500003E-02   1.82389415E-09
   1.14000002E-02   1.86104387E-09
   1.14500001E-02   1.89821292E-09
   1.15000000E-02   1.93536676E-09
   1.15499999E-02   1.97246863E-09
   1.15999999E-02   2.00948103E-09
   1.16499998E-02   2.04636419E-09
   1.16999997E-02   2.08307793E-09
   1.17499996E-02   2.11957940E-09
   1.18000004E-02   2.15582530E-09
   1.18500004E-02   2.19176988E-09
   1.19000003E-02   2.22736607E-09
   1.19500002E-02   2.26256525E-09
   1.20000001E-02   2.29731745E-09
   1.20500000E-02   2.33157094E-09
   1.20999999E-02   2.36527220E-09
   1.21499998E-02   2.39836639E-09
   1.21999998E-02   2.43079668E-09
   1.22499997E-02   2.46250487E-09
   1.22999996E-02   2.49343102E-09
   1.23500004E-02   2.52351340E-09
   1.24000004E-02   2.55268895E-09
   1.24500003E-02   2.58089239E-09
   1.25000002E-02   2.60805755E-09
   1.25500001E-02   2.63411559E-09
   1.26000000E-02   2.65899702E-09
   1.26499999E-02   2.68263012E-09
   1.26999998E-02   2.70494138E-09
   1.27499998E-02   2.72585576E-09
   1.27999997E-02   2.74529688E-09
   1.28499996E-02   2.76318635E-09
   1.29000004E-02   2.77944401E-09
   1.29500004E-02   2.79398860E-09
   1.30000003E-02   2.80673640E-09
   1.30500002E-02   2.81760326E-09
   1.31000001E-02   2.82650259E-09
   1.31500000E-02   2.83334667E-09
   1.31999999E-02   2.83804558E-09
   1.32499998E-02   2.84050872E-09
   1.32999998E-02   2.84064350E-09
   1.33499997E-02   2.83835622E-09
   1.33999996E-02   2.83355117E-09
   1.34500004E-02   2.82613155E-09
   1.35000004E-02   2.81599899E-09
   1.35500003E-02   2.80305423E-09
   1.36000002E-02   2.78719647E-09
   1.36500001E-02   2.76832313E-09
   1.37000000E-02   2.74633138E-09
   1.37499999E-02   2.72111622E-09
   1.37999998E-02   2.69257217E-09
   1.38499998E-02   2.66059241E-09
   1.38999997E-02   2.62506927E-09
   1.39499996E-02   2.58589372E-09
   1.40000004E-02   2.54295607E-09
   1.40500003E-02   2.49614573E-09
   1.41000003E-02   2.44535148E-09
   1.41500002E-02   2.39046094E-09
   1.42000001E-02   2.33136110E-09
   1.42500000E-02   2.26793850E-09
   1.42999999E-02   2.20007879E-09
   1.43499998E-02   2.12766782E-09
   1.43999998E-02   2.05059059E-09
   1.44499997E-02   1.96873140E-09
   1.44999996E-02   1.88197480E-09
   1.45500004E-02   1.79020521E-09
   1.46000003E-02   1.69330661E-09
   1.46500003E-02   1.59116320E-09
   1.47000002E-02   1.48365897E-09
   1.47500001E-02   1.37067857E-09
   1.48000000E-02   1.25210642E-09
   1.48499999E-02   1.12782750E-09
   1.48999998E-02   9.97727456E-10
   1.49499997E-02   8.61692107E-10
   1.49999997E-02   7.19608151E-10
   1.50499996E-02   5.71363290E-10
   1.51000004E-02   4.16845447E-10
   1.51500003E-02   2.55944016E-10
   1.52000003E-02   8.85495358E-11
   1.52500002E-02  -8.54463375E-11
   1.53000001E-02  -2.66150768E-10
   1.53500000E-02  -4.53669574E-10
   1.53999999E-02  -6.48106735E-10
   1.54499998E-02  -8.49564585E-10
   1.54999997E-02  -1.05814368E-09
   1.55499997E-02  -1.27394284E-09
   1.55999996E-02  -1.49705848E-09
   1.56500004E-02  -1.72758496E-09
   1.56999994E-02  -1.96561434E-09
   1.57500003E-02  -2.21123608E-09
   1.57999992E-02  -2.46453724E-09
   1.58500001E-02  -2.72560219E-09
   1.59000009E-02  -2.99451219E-09
   1.59499999E-02  -3.27134519E-09
   1.60000008E-02  -3.55617691E-09
   1.60499997E-02  -3.84907883E-09
   1.61000006E-02  -4.15011980E-09
   1.61499996E-02  -4.45936399E-09
   1.62000004E-02  -4.77687312E-09
   1.62499994E-02  -5.10270404E-09
   1.63000003E-02  -5.43691003E-09
   1.63499992E-02  -5.77953951E-09
   1.64000001E-02  -6.13063689E-09
   1.64500009E-02  -6.49024257E-09
   1.64999999E-02  -6.85839208E-09
   1.65500008E-02  -7.23511562E-09
   1.65999997E-02  -7.62043939E-09
   1.66500006E-02  -8.01438294E-09
   1.66999996E-02  -8.41696224E-09
   1.67500004E-02  -8.82818618E-09
   1.67999994E-02  -9.24805921E-09
   1.68500002E-02  -9.67657954E-09
   1.68999992E-02  -1.01137410E-08
   1.69500001E-02  -1.05595275E-08
   1.70000009E-02  -1.10139204E-08
   1.70499999E-02  -1.14768941E-08
   1.71000008E-02  -1.19484165E-08
   1.71499997E-02  -1.24284458E-08
   1.72000006E-02  -1.29169369E-08
   1.72499996E-02  -1.34138372E-08
   1.73000004E-02  -1.39190863E-08
   1.73499994E-02  -1.44326151E-08
   1.74000002E-02  -1.49543506E-08
   1.74499992E-02  -1.54842077E-08
   1.75000001E-02  -1.60220957E-08
   1.75500009E-02  -1.65679186E-08
   1.75999999E-02  -1.71215717E-08
   1.76500008E-02  -1.76829342E-08
   1.76999997E-02  -1.82518871E-08
   1.77500006E-02  -1.88282989E-08
   1.77999996E-02  -1.94120275E-08
   1.78500004E-02  -2.00029273E-08
   1.78999994E-02  -2.06008401E-08
   1.79500002E-02  -2.12055991E-08
   1.79999992E-02  -2.18170282E-08
   1.80500001E-02  -2.24349428E-08
   1.81000009E-02  -2.30591475E-08
   1.81499999E-02  -2.36894397E-08
   1.82000007E-02  -2.43256082E-08
   1.82499997E-02  -2.49674290E-08
   1.83000006E-02  -2.56146677E-08
   1.83499996E-02  -2.62670827E-08
   1.84000004E-02  -2.69244254E-08
   1.84499994E-02  -2.75864327E-08
   1.85000002E-02  -2.82528259E-08
   1.85499992E-02  -2.89233242E-08
   1.86000001E-02  -2.95976381E-08
   1.86500009E-02  -3.02754657E-08
   1.86999999E-02  -3.09564925E-08
   1.87500007E-02  -3.16403899E-08
   1.87999997E-02  -3.23268203E-08
   1.88500006E-02  -3.30154428E-08
   1.88999996E-02  -3.37059056E-08
   1.89500004E-02  -3.43978357E-08
   1.89999994E-02  -3.50908600E-08
   1.90500002E-02  -3.57845913E-08
   1.90999992E-02  -3.64786246E-08
   1.91500001E-02  -3.71725477E-08
   1.92000009E-02  -3.78659450E-08
   1.92499999E-02  -3.85583903E-08
   1.93000007E-02  -3.92494393E-08
   1.93499997E-02  -3.99386302E-08
   1.94000006E-02  -4.06255047E-08
   1.94499996E-02  -4.13095869E-08
   1.95000004E-02  -4.19903969E-08
   1.95499994E-02  -4.26674340E-08
   1.96000002E-02  -4.33401972E-08
   1.96499992E-02  -4.40081642E-08
   1.97000001E-02  -4.46708093E-08
   1.97500009E-02  -4.53275923E-08
   1.97999999E-02  -4.59779699E-08
   1.98500007E-02  -4.66213770E-08
   1.98999997E-02  -4.72572488E-08
   1.99500006E-02  -4.78850097E-08
   1.99999996E-02  -4.85040665E-08
   2.00500004E-02  -4.91138259E-08
   2.00999994E-02  -4.97136732E-08
   2.01500002E-02  -5.03029902E-08
   2.01999992E-02  -5.08811553E-08
   2.02500001E-02  -5.14475289E-08
   2.03000009E-02  -5.20014716E-08
   2.03499999E-02  -5.25423225E-08
   2.04000007E-02  -5.30694244E-08
   2.04499997E-02  -5.35820952E-08
   2.05000006E-02  -5.40796670E-08
   2.05499995E-02  -5.45614469E-08
   2.06000004E-02  -5.50267387E-08
   2.06499994E-02  -5.54748354E-08
   2.07000002E-02  -5.59050335E-08
   2.07499992E-02  -5.63166154E-08
   2.08000001E-02  -5.67088456E-08
   2.08500009E-02  -5.70810030E-08
   2.08999999E-02  -5.74323451E-08
   2.09500007E-02  -5.77621364E-08
   2.09999997E-02  -5.80696167E-08
   2.10500006E-02  -5.83540292E-08
   2.10999995E-02  -5.86146136E-08
   2.11500004E-02  -5.88506133E-08
   2.11999994E-02  -5.90612501E-08
   2.12500002E-02  -5.92457603E-08
   2.12999992E-02  -5.94033622E-08
   2.13500001E-02  -5.95332708E-08
   2.14000009E-02  -5.96347007E-08
   2.14499999E-02  -5.97068706E-08
   2.15000007E-02  -5.97489844E-08
   2.15499997E-02  -5.97602536E-08
   2.16000006E-02  -5.97398966E-08
   2.16499995E-02  -5.96871033E-08
   2.17000004E-02  -5.96010814E-08
   2.17499994E-02  -5.94810423E-08
   2.18000002E-02  -5.93261902E-08
   2.18499992E-02  -5.91357256E-08
   2.19000001E-02  -5.89088600E-08
   2.19500009E-02  -5.86448046E-08
   2.19999999E-02  -5.83427600E-08
   2.20500007E-02  -5.80019481E-08
   2.20999997E-02  -5.76215911E-08
   2.21500006E-02  -5.72009036E-08
   2.21999995E-02  -5.67391112E-08
   2.22500004E-02  -5.62354394E-08
   2.22999994E-02  -5.56891244E-08
   2.23500002E-02  -5.50994024E-08
   2.23999992E-02  -5.44655236E-08
   2.24500000E-02  -5.37867386E-08
   2.25000009E-02  -5.30623083E-08
   2.25499999E-02  -5.22915045E-08
   2.26000007E-02  -5.14735952E-08
   2.26499997E-02  -5.06078699E-08
   2.27000006E-02  -4.96936181E-08
   2.27499995E-02  -4.87301541E-08
   2.28000004E-02  -4.77167852E-08
   2.28499994E-02  -4.66528398E-08
   2.29000002E-02  -4.55376643E-08
   2.29499992E-02  -4.43706050E-08
   2.30000000E-02  -4.31510223E-08
   2.30500009E-02  -4.18782982E-08
   2.30999999E-02  -4.05518250E-08
   2.31500007E-02  -3.91710060E-08
   2.31999997E-02  -3.77352691E-08
   2.32500006E-02  -3.62440531E-08
   2.32999995E-02  -3.46968108E-08
   2.33500004E-02  -3.30930234E-08
   2.33999994E-02  -3.14321760E-08
   2.34500002E-02  -2.97137799E-08
   2.34999992E-02  -2.79373662E-08
   2.35500000E-02  -2.61024873E-08
   2.36000009E-02  -2.42087133E-08
   2.36499999E-02  -2.22556373E-08
   2.37000007E-02  -2.02428669E-08
   2.37499997E-02  -1.81700397E-08
   2.38000005E-02  -1.60368199E-08
   2.38499995E-02  -1.38428877E-08
   2.39000004E-02  -1.15879537E-08
   2.39499994E-02  -9.27175137E-09
   2.40000002E-02  -6.89403645E-09
   2.40499992E-02  -4.45459536E-09
   2.41000000E-02  -1.95324046E-09
   2.41500009E-02   6.10188844E-10
   2.41999999E-02   3.23582250E-09
   2.42500007E-02   5.92376592E-09
   2.42999997E-02   8.67409167E-09
   2.43500005E-02   1.14868435E-08
   2.43999995E-02   1.43620351E-08
   2.44500004E-02   1.72996479E-08
   2.44999994E-02   2.02996340E-08
   2.45500002E-02   2.33619133E-08
   2.45999992E-02   2.64863633E-08
   2.46500000E-02   2.96728384E-08
   2.47000009E-02   3.29211574E-08
   2.47499999E-02   3.62310963E-08
   2.48000007E-02   3.96024085E-08
   2.48499997E-02   4.30348024E-08
   2.49000005E-02   4.65279548E-08
   2.49499995E-02   5.00815105E-08
   2.50000004E-02   5.36950608E-08
   2.50499994E-02   5.73681689E-08
   2.51000002E-02   6.11003657E-08
   2.51499992E-02   6.48911325E-08
   2.52000000E-02   6.87399222E-08
   2.52500009E-02   7.26461451E-08
   2.52999999E-02   7.66091617E-08
   2.53500007E-02   8.06283040E-08
   2.53999997E-02   8.47028545E-08
   2.54500005E-02   8.88320670E-08
   2.54999995E-02   9.30151316E-08
   2.55500004E-02   9.72512240E-08
   2.55999994E-02   1.01539463E-07
   2.56500002E-02   1.05878932E-07
   2.56999992E-02   1.10268630E-07
   2.57500000E-02   1.14707582E-07
   2.58000009E-02   1.19194723E-07
   2.58499999E-02   1.23728967E-07
   2.59000007E-02   1.28309168E-07
   2.59499997E-02   1.32934147E-07
   2.60000005E-02   1.37602655E-07
   2.60499995E-02   1.42313439E-07
   2.61000004E-02   1.47065165E-07
   2.61499994E-02   1.51856497E-07
   2.62000002E-02   1.56685999E-07
   2.62499992E-02   1.61552236E-07
   2.63000000E-02   1.66453688E-07
   2.63500009E-02   1.71388820E-07
   2.63999999E-02   1.76356053E-07
   2.64500007E-02   1.81353755E-07
   2.64999997E-02   1.86380234E-07
   2.65500005E-02   1.91433756E-07
   2.65999995E-02   1.96512588E-07
   2.66500004E-02   2.01614881E-07
   2.66999993E-02   2.06738790E-07
   2.67500002E-02   2.11882409E-07
   2.67999992E-02   2.17043791E-07
   2.68500000E-02   2.22220919E-07
   2.69000009E-02   2.27411775E-07
   2.69499999E-02   2.32614255E-07
   2.70000007E-02   2.37826285E-07
   2.70499997E-02   2.43045633E-07
   2.71000005E-02   2.48270112E-07
   2.71499995E-02   2.53497461E-07
   2.72000004E-02   2.58725379E-07
   2.72499993E-02   2.63951478E-07
   2.73000002E-02   2.69173455E-07
   2.73499992E-02   2.74388867E-07
   2.74000000E-02   2.79595213E-07
   2.74500009E-02   2.84789991E-07
   2.74999999E-02   2.89970700E-07
   2.75500007E-02   2.95134669E-07
   2.75999997E-02   3.00279368E-07
   2.76500005E-02   3.05402040E-07
   2.76999995E-02   3.10500042E-07
   2.77500004E-02   3.15570617E-07
   2.77999993E-02   3.20610980E-07
   2.78500002E-02   3.25618288E-07
   2.78999992E-02   3.30589785E-07
   2.79500000E-02   3.35522515E-07
   2.80000009E-02   3.40413578E-07
   2.80499998E-02   3.45260077E-07
   2.81000007E-02   3.50058997E-07
   2.81499997E-02   3.54807270E-07
   2.82000005E-02   3.59501911E-07
   2.82499995E-02   3.64139851E-07
   2.83000004E-02   3.68717991E-07
   2.83499993E-02   3.73233206E-07
   2.84000002E-02   3.77682341E-07
   2.84499992E-02   3.82062211E-07
   2.85000000E-02   3.86369607E-07
   2.85500009E-02   3.90601315E-07
   2.85999998E-02   3.94754068E-07
   2.86500007E-02   3.98824653E-07
   2.86999997E-02   4.02809746E-07
   2.87500005E-02   4.06706050E-07
   2.87999995E-02   4.10510182E-07
   2.88500004E-02   4.14218874E-07
   2.88999993E-02   4.17828744E-07
   2.89500002E-02   4.21336438E-07
   2.89999992E-02   4.24738573E-07
   2.90500000E-02   4.28031711E-07
   2.91000009E-02   4.31212499E-07
   2.91499998E-02   4.34277553E-07
   2.92000007E-02   4.37223406E-07
   2.92499997E-02   4.40046648E-07
   2.93000005E-02   4.42743840E-07
   2.93499995E-02   4.45311571E-07
   2.94000003E-02   4.47746402E-07
   2.94499993E-02   4.50044951E-07
   2.95000002E-02   4.52203722E-07
   2.95499992E-02   4.54219304E-07
   2.96000000E-02   4.56088316E-07
   2.96500009E-02   4.57807317E-07
   2.96999998E-02   4.59372899E-07
   2.97500007E-02   4.60781678E-07
   2.97999997E-02   4.62030300E-07
   2.98500005E-02   4.63115327E-07
   2.98999995E-02   4.64033434E-07
   2.99500003E-02   4.64781237E-07
   2.99999993E-02   4.65355527E-07
   3.00500002E-02   4.65752919E-07
   3.00999992E-02   4.65970146E-07
   3.01500000E-02   4.66003968E-07
   3.02000009E-02   4.65851173E-07
   3.02499998E-02   4.65508521E-07
   3.03000007E-02   4.64972857E-07
   3.03499997E-02   4.64241026E-07
   3.04000005E-02   4.63309902E-07
   3.04499995E-02   4.62176388E-07
   3.05000003E-02   4.60837498E-07
   3.05499993E-02   4.59290192E-07
   3.06000002E-02   4.57531513E-07
   3.06499992E-02   4.55558535E-07
   3.07000000E-02   4.53368386E-07
   3.07500008E-02   4.50958225E-07
   3.07999998E-02   4.48325295E-07
   3.08500007E-02   4.45466782E-07
   3.08999997E-02   4.42380042E-07
   3.09500005E-02   4.39062404E-07
   3.09999995E-02   4.35511311E-07
   3.10500003E-02   4.31724260E-07
   3.10999993E-02   4.27698723E-07
   3.11500002E-02   4.23432340E-07
   3.11999992E-02   4.18922724E-07
   3.12500000E-02   4.14167630E-07
   3.13000008E-02   4.09164841E-07
   3.13500017E-02   4.03912168E-07
   3.13999988E-02   3.98407508E-07
   3.14499997E-02   3.92648900E-07
   3.15000005E-02   3.86634412E-07
   3.15500014E-02   3.80362138E-07
   3.15999985E-02   3.73830261E-07
   3.16499993E-02   3.67037131E-07
   3.17000002E-02   3.59981101E-07
   3.17500010E-02   3.52660606E-07
   3.18000019E-02   3.45074199E-07
   3.18499990E-02   3.37220513E-07
   3.18999998E-02   3.29098157E-07
   3.19500007E-02   3.20705993E-07
   3.20000015E-02   3.12042914E-07
   3.20499986E-02   3.03107868E-07
   3.20999995E-02   2.93899944E-07
   3.21500003E-02   2.84418263E-07
   3.22000012E-02   2.74662142E-07
   3.22499983E-02   2.64630870E-07
   3.22999991E-02   2.54323965E-07
   3.23500000E-02   2.43740971E-07
   3.24000008E-02   2.32881519E-07
   3.24500017E-02   2.21745395E-07
   3.24999988E-02   2.10332459E-07
   3.25499997E-02   1.98642695E-07
   3.26000005E-02   1.86676203E-07
   3.26500013E-02   1.74433140E-07
   3.26999985E-02   1.61913860E-07
   3.27499993E-02   1.49118748E-07
   3.28000002E-02   1.36048328E-07
   3.28500010E-02   1.22703284E-07
   3.29000019E-02   1.09084368E-07
   3.29499990E-02   9.51924619E-08
   3.29999998E-02   8.10285528E-08
   3.30500007E-02   6.65937705E-08
   3.31000015E-02   5.18893550E-08
   3.31499986E-02   3.69166742E-08
   3.31999995E-02   2.16772111E-08
   3.32500003E-02   6.17256912E-09
   3.33000012E-02  -9.59551993E-09
   3.33499983E-02  -2.56251891E-08
   3.33999991E-02  -4.19144612E-08
   3.34500000E-02  -5.84612003E-08
   3.35000008E-02  -7.52631806E-08
   3.35500017E-02  -9.23180465E-08
   3.35999988E-02  -1.09623301E-07
   3.36499996E-02  -1.27176278E-07
   3.37000005E-02  -1.44974237E-07
   3.37500013E-02  -1.63014292E-07
   3.37999985E-02  -1.81293430E-07
   3.38499993E-02  -1.99808497E-07
   3.39000002E-02  -2.18556167E-07
   3.39500010E-02  -2.37533058E-07
   3.40000018E-02  -2.56735632E-07
   3.40499990E-02  -2.76160137E-07
   3.40999998E-02  -2.95802778E-07
   3.41500007E-02  -3.15659634E-07
   3.42000015E-02  -3.35726583E-07
   3.42499986E-02  -3.55999447E-07
   3.42999995E-02  -3.76473821E-07
   3.43500003E-02  -3.97145214E-07
   3.44000012E-02  -4.18009051E-07
   3.44499983E-02  -4.39060528E-07
   3.44999991E-02  -4.60294729E-07
   3.45500000E-02  -4.81706707E-07
   3.46000008E-02  -5.03291290E-07
   3.46500017E-02  -5.25043106E-07
   3.46999988E-02  -5.46956812E-07
   3.47499996E-02  -5.69026895E-07
   3.48000005E-02  -5.91247613E-07
   3.48500013E-02  -6.13613167E-07
   3.48999985E-02  -6.36117534E-07
   3.49499993E-02  -6.58754743E-07
   3.50000001E-02  -6.81518543E-07
   3.50500010E-02  -7.04402623E-07
   3.51000018E-02  -7.27400504E-07
   3.51499990E-02  -7.50505592E-07
   3.51999998E-02  -7.73711236E-07
   3.52500007E-02  -7.97010557E-07
   3.53000015E-02  -8.20396622E-07
   3.53499986E-02  -8.43862381E-07
   3.53999995E-02  -8.67400558E-07
   3.54500003E-02  -8.91003992E-07
   3.55000012E-02  -9.14665122E-07
   3.55499983E-02  -9.38376388E-07
   3.55999991E-02  -9.62130230E-07
   3.56500000E-02  -9.85918859E-07
   3.57000008E-02  -1.00973432E-06
   3.57500017E-02  -1.03356865E-06
   3.57999988E-02  -1.05741356E-06
   3.58499996E-02  -1.08126096E-06
   3.59000005E-02  -1.10510257E-06
   3.59500013E-02  -1.12893008E-06
   3.59999985E-02  -1.15273474E-06
   3.60499993E-02  -1.17650802E-06
   3.61000001E-02  -1.20024129E-06
   3.61500010E-02  -1.22392555E-06
   3.62000018E-02  -1.24755195E-06
   3.62499990E-02  -1.27111161E-06
   3.62999998E-02  -1.29459522E-06
   3.63500006E-02  -1.31799368E-06
   3.64000015E-02  -1.34129778E-06
   3.64499986E-02  -1.36449808E-06
   3.64999995E-02  -1.38758537E-06
   3.65500003E-02  -1.41054988E-06
   3.66000012E-02  -1.43338218E-06
   3.66499983E-02  -1.45607248E-06
   3.66999991E-02  -1.47861124E-06
   3.67500000E-02  -1.50098856E-06
   3.68000008E-02  -1.52319467E-06
   3.68500017E-02  -1.54521945E-06
   3.68999988E-02  -1.56705300E-06
   3.69499996E-02  -1.58868534E-06
   3.70000005E-02  -1.61010632E-06
   3.70500013E-02  -1.63130608E-06
   3.70999984E-02  -1.65227414E-06
   3.71499993E-02  -1.67300027E-06
   3.72000001E-02  -1.69347413E-06
   3.72500010E-02  -1.71368549E-06
   3.73000018E-02  -1.73362423E-06
   3.73499990E-02  -1.75327978E-06
   3.73999998E-02  -1.77264155E-06
   3.74500006E-02  -1.79169933E-06
   3.75000015E-02  -1.81044254E-06
   3.75499986E-02  -1.82886095E-06
   3.75999995E-02  -1.84694375E-06
   3.76500003E-02  -1.86468060E-06
   3.77000012E-02  -1.88206081E-06
   3.77499983E-02  -1.89907405E-06
   3.77999991E-02  -1.91570962E-06
   3.78500000E-02  -1.93195729E-06
   3.79000008E-02  -1.94780614E-06
   3.79500017E-02  -1.96324595E-06
   3.79999988E-02  -1.97826603E-06
   3.80499996E-02  -1.99285591E-06
   3.81000005E-02  -2.00700492E-06
   3.81500013E-02  -2.02070328E-06
   3.81999984E-02  -2.03394006E-06
   3.82499993E-02  -2.04670482E-06
   3.83000001E-02  -2.05898732E-06
   3.83500010E-02  -2.07077710E-06
   3.84000018E-02  -2.08206438E-06
   3.84499989E-02  -2.09283826E-06
   3.84999998E-02  -2.10308895E-06
   3.85500006E-02  -2.11280621E-06
   3.86000015E-02  -2.12198029E-06
   3.86499986E-02  -2.13060048E-06
   3.86999995E-02  -2.13865701E-06
   3.87500003E-02  -2.14614033E-06
   3.88000011E-02  -2.15304021E-06
   3.88499983E-02  -2.15934688E-06
   3.88999991E-02  -2.16505123E-06
   3.89500000E-02  -2.17014326E-06
   3.90000008E-02  -2.17461343E-06
   3.90500017E-02  -2.17845241E-06
   3.90999988E-02  -2.18165064E-06
   3.91499996E-02  -2.18419927E-06
   3.92000005E-02  -2.18608920E-06
   3.92500013E-02  -2.18731111E-06
   3.92999984E-02  -2.18785658E-06
   3.93499993E-02  -2.18771629E-06
   3.94000001E-02  -2.18688183E-06
   3.94500010E-02  -2.18534433E-06
   3.95000018E-02  -2.18309583E-06
   3.95499989E-02  -2.18012769E-06
   3.95999998E-02  -2.17643174E-06
   3.96500006E-02  -2.17200022E-06
   3.97000015E-02  -2.16682520E-06
   3.97499986E-02  -2.16089848E-06
   3.97999994E-02  -2.15421301E-06
   3.98500003E-02  -2.14676106E-06
   3.99000011E-02  -2.13853536E-06
   3.99499983E-02  -2.12952864E-06
   3.99999991E-02  -2.11973429E-06
   4.00500000E-02  -2.10914527E-06
   4.01000008E-02  -2.09775499E-06
   4.01500016E-02  -2.08555684E-06
   4.01999988E-02  -2.07254470E-06
   4.02499996E-02  -2.05871243E-06
   4.03000005E-02  -2.04405410E-06
   4.03500013E-02  -2.02856381E-06
   4.03999984E-02  -2.01223611E-06
   4.04499993E-02  -1.99506599E-06
   4.05000001E-02  -1.97704799E-06
   4.05500010E-02  -1.95817711E-06
   4.06000018E-02  -1.93844858E-06
   4.06499989E-02  -1.91785784E-06
   4.06999998E-02  -1.89640093E-06
   4.07500006E-02  -1.87407352E-06
   4.08000015E-02  -1.85087174E-06
   4.08499986E-02  -1.82679184E-06
   4.08999994E-02  -1.80183042E-06
   4.09500003E-02  -1.77598417E-06
   4.10000011E-02  -1.74925026E-06
   4.10499983E-02  -1.72162584E-06
   4.10999991E-02  -1.69310852E-06
   4.11499999E-02  -1.66369580E-06
   4.12000008E-02  -1.63338598E-06
   4.12500016E-02  -1.60217701E-06
   4.12999988E-02  -1.57006752E-06
   4.13499996E-02  -1.53705605E-06
   4.14000005E-02  -1.50314168E-06
   4.14500013E-02  -1.46832360E-06
   4.14999984E-02  -1.43260138E-06
   4.15499993E-02  -1.39597478E-06
   4.16000001E-02  -1.35844368E-06
   4.16500010E-02  -1.32000855E-06
   4.17000018E-02  -1.28066995E-06
   4.17499989E-02  -1.24042845E-06
   4.17999998E-02  -1.19928529E-06
   4.18500006E-02  -1.15724185E-06
   4.19000015E-02  -1.11429983E-06
   4.19499986E-02  -1.07046117E-06
   4.19999994E-02  -1.02572801E-06
   4.20500003E-02  -9.80102982E-07
   4.21000011E-02  -9.33588751E-07
   4.21499982E-02  -8.86188502E-07
   4.21999991E-02  -8.37905645E-07
   4.22499999E-02  -7.88743819E-07
   4.23000008E-02  -7.38706945E-07
   4.23500016E-02  -6.87799400E-07
   4.23999988E-02  -6.36025618E-07
   4.24499996E-02  -5.83390545E-07
   4.25000004E-02  -5.29899353E-07
   4.25500013E-02  -4.75557471E-07
   4.25999984E-02  -4.20370725E-07
   4.26499993E-02  -3.64345198E-07
   4.27000001E-02  -3.07487255E-07
   4.27500010E-02  -2.49803634E-07
   4.28000018E-02  -1.91301325E-07