   0.00000000       0.00000000    
   4.99999987E-05   0.00000000    
   9.99999975E-05   0.00000000    
   1.50000007E-04   0.00000000    
   1.99999995E-04   1.78570400E-25
   2.50000012E-04   1.79988890E-24
   3.00000014E-04   9.80546611E-24
   3.49999988E-04   3.84950301E-23
   3.99999990E-04   1.22190717E-22
   4.49999992E-04   3.33306278E-22
   5.00000024E-04   8.10806183E-22
   5.49999997E-04   1.80263678E-21
   6.00000028E-04   3.72633032E-21
   6.50000002E-04   7.25263641E-21
   6.99999975E-04   1.34176903E-20
   7.50000007E-04   2.37699364E-20
   7.99999980E-04   4.05586914E-20
   8.50000011E-04   6.69718834E-20
   8.99999985E-04   1.07431446E-19
   9.50000016E-04   1.67954991E-19
   1.00000005E-03   2.56593985E-19
   1.04999996E-03   3.83958344E-19
   1.09999999E-03   5.63838514E-19
   1.15000003E-03   8.13936779E-19
   1.20000006E-03   1.15672048E-18
   1.24999997E-03   1.62040908E-18
   1.30000000E-03   2.24010994E-18
   1.35000004E-03   3.05911388E-18
   1.39999995E-03   4.13036798E-18
   1.44999998E-03   5.51813965E-18
   1.50000001E-03   7.29988545E-18
   1.55000004E-03   9.56833977E-18
   1.59999996E-03   1.24338407E-17
   1.64999999E-03   1.60269172E-17
   1.70000002E-03   2.05011272E-17
   1.75000005E-03   2.60361963E-17
   1.79999997E-03   3.28414261E-17
   1.85000000E-03   4.11594683E-17
   1.90000003E-03   5.12704014E-17
   1.94999995E-03   6.34961044E-17
   2.00000009E-03   7.82050829E-17
   2.05000001E-03   9.58175648E-17
   2.09999993E-03   1.16811098E-16
   2.15000007E-03   1.41726466E-16
   2.19999999E-03   1.71174056E-16
   2.24999990E-03   2.05840507E-16
   2.30000005E-03   2.46496011E-16
   2.34999997E-03   2.94001880E-16
   2.40000011E-03   3.49318479E-16
   2.45000003E-03   4.13514179E-16
   2.49999994E-03   4.87773822E-16
   2.55000009E-03   5.73408271E-16
   2.60000001E-03   6.71864416E-16
   2.64999992E-03   7.84735527E-16
   2.70000007E-03   9.13771520E-16
   2.74999999E-03   1.06089077E-15
   2.79999990E-03   1.22819121E-15
   2.85000005E-03   1.41796301E-15
   2.89999996E-03   1.63269963E-15
   2.95000011E-03   1.87511241E-15
   3.00000003E-03   2.14814205E-15
   3.04999994E-03   2.45497444E-15
   3.10000009E-03   2.79905066E-15
   3.15000000E-03   3.18408409E-15
   3.19999992E-03   3.61407656E-15
   3.25000007E-03   4.09332610E-15
   3.29999998E-03   4.62644991E-15
   3.34999990E-03   5.21839338E-15
   3.40000005E-03   5.87444539E-15
   3.44999996E-03   6.60025691E-15
   3.50000011E-03   7.40185331E-15
   3.55000002E-03   8.28565003E-15
   3.59999994E-03   9.25846398E-15
   3.65000009E-03   1.03275356E-14
   3.70000000E-03   1.15005339E-14
   3.74999992E-03   1.27855803E-14
   3.80000006E-03   1.41912484E-14
   3.84999998E-03   1.57265931E-14
   3.89999989E-03   1.74011518E-14
   3.94999981E-03   1.92249526E-14
   4.00000019E-03   2.12085412E-14
   4.05000011E-03   2.33629763E-14
   4.10000002E-03   2.56998436E-14
   4.14999994E-03   2.82312642E-14
   4.19999985E-03   3.09699030E-14
   4.25000023E-03   3.39289686E-14
   4.30000015E-03   3.71222184E-14
   4.35000006E-03   4.05639572E-14
   4.39999998E-03   4.42690454E-14
   4.44999989E-03   4.82529056E-14
   4.49999981E-03   5.25314858E-14
   4.55000019E-03   5.71212931E-14
   4.60000010E-03   6.20393765E-14
   4.65000002E-03   6.73033000E-14
   4.69999993E-03   7.29311360E-14
   4.74999985E-03   7.89414649E-14
   4.80000023E-03   8.53533281E-14
   4.85000014E-03   9.21862413E-14
   4.90000006E-03   9.94601740E-14
   4.94999997E-03   1.07195489E-13
   4.99999989E-03   1.15412888E-13
   5.04999980E-03   1.24133437E-13
   5.10000018E-03   1.33378538E-13
   5.15000010E-03   1.43169832E-13
   5.20000001E-03   1.53529140E-13
   5.24999993E-03   1.64478538E-13
   5.29999984E-03   1.76040104E-13
   5.35000023E-03   1.88236051E-13
   5.40000014E-03   2.01088549E-13
   5.45000006E-03   2.14619609E-13
   5.49999997E-03   2.28851226E-13
   5.54999989E-03   2.43805058E-13
   5.59999980E-03   2.59502543E-13
   5.65000018E-03   2.75964689E-13
   5.70000010E-03   2.93211879E-13
   5.75000001E-03   3.11264035E-13
   5.79999993E-03   3.30140402E-13
   5.84999984E-03   3.49859112E-13
   5.90000022E-03   3.70437649E-13
   5.95000014E-03   3.91892356E-13
   6.00000005E-03   4.14238305E-13
   6.04999997E-03   4.37489292E-13
   6.09999988E-03   4.61657622E-13
   6.14999980E-03   4.86754192E-13
   6.20000018E-03   5.12787892E-13
   6.25000009E-03   5.39765498E-13
   6.30000001E-03   5.67691727E-13
   6.34999992E-03   5.96569289E-13
   6.39999984E-03   6.26398293E-13
   6.45000022E-03   6.57175974E-13
   6.50000013E-03   6.88896965E-13
   6.55000005E-03   7.21552592E-13
   6.59999996E-03   7.55131146E-13
   6.64999988E-03   7.89617178E-13
   6.69999979E-03   8.24991442E-13
   6.75000018E-03   8.61231063E-13
   6.80000009E-03   8.98308771E-13
   6.85000001E-03   9.36192855E-13
   6.89999992E-03   9.74846831E-13
   6.94999984E-03   1.01422950E-12
   7.00000022E-03   1.05429446E-12
   7.05000013E-03   1.09498923E-12
   7.10000005E-03   1.13625624E-12
   7.14999996E-03   1.17803131E-12
   7.19999988E-03   1.22024493E-12
   7.24999979E-03   1.26282004E-12
   7.30000017E-03   1.30567226E-12
   7.35000009E-03   1.34871129E-12
   7.40000000E-03   1.39183836E-12
   7.44999992E-03   1.43494732E-12
   7.49999983E-03   1.47792401E-12
   7.55000021E-03   1.52064472E-12
   7.60000013E-03   1.56297826E-12
   7.65000004E-03   1.60478369E-12
   7.69999996E-03   1.64591062E-12
   7.74999987E-03   1.68619903E-12
   7.79999979E-03   1.72547903E-12
   7.84999970E-03   1.76357063E-12
   7.89999962E-03   1.80028160E-12
   7.95000046E-03   1.83540986E-12
   8.00000038E-03   1.86874106E-12
   8.05000030E-03   1.90005000E-12
   8.10000021E-03   1.92909968E-12
   8.15000013E-03   1.95564159E-12
   8.20000004E-03   1.97941078E-12
   8.24999996E-03   2.00013248E-12
   8.29999987E-03   2.01751853E-12
   8.34999979E-03   2.03126426E-12
   8.39999970E-03   2.04105483E-12
   8.44999962E-03   2.04655975E-12
   8.50000046E-03   2.04743254E-12
   8.55000038E-03   2.04331495E-12
   8.60000029E-03   2.03383100E-12
   8.65000021E-03   2.01859016E-12
   8.70000012E-03   1.99718887E-12
   8.75000004E-03   1.96920583E-12
   8.79999995E-03   1.93420085E-12
   8.84999987E-03   1.89172029E-12
   8.89999978E-03   1.84129535E-12
   8.94999970E-03   1.78244117E-12
   8.99999961E-03   1.71465262E-12
   9.05000046E-03   1.63740831E-12
   9.10000037E-03   1.55017351E-12
   9.15000029E-03   1.45239506E-12
   9.20000020E-03   1.34350148E-12
   9.25000012E-03   1.22290416E-12
   9.30000003E-03   1.08999572E-12
   9.34999995E-03   9.44153393E-13
   9.39999986E-03   7.84740762E-13
   9.44999978E-03   6.11098357E-13
   9.49999969E-03   4.22551805E-13
   9.54999961E-03   2.18413097E-13
   9.60000046E-03  -2.02802452E-15
   9.65000037E-03  -2.39495245E-13
   9.70000029E-03  -4.94728878E-13
   9.75000020E-03  -7.68487108E-13
   9.80000012E-03  -1.06154191E-12
   9.85000003E-03  -1.37468433E-12
   9.89999995E-03  -1.70871791E-12
   9.94999986E-03  -2.06446058E-12
   9.99999978E-03  -2.44274371E-12
   1.00499997E-02  -2.84441763E-12
   1.00999996E-02  -3.27034558E-12
   1.01500005E-02  -3.72139689E-12
   1.02000004E-02  -4.19846232E-12
   1.02500003E-02  -4.70243896E-12
   1.03000002E-02  -5.23423275E-12
   1.03500001E-02  -5.79476831E-12
   1.04000000E-02  -6.38497458E-12
   1.04499999E-02  -7.00578354E-12
   1.04999999E-02  -7.65814582E-12
   1.05499998E-02  -8.34301725E-12
   1.05999997E-02  -9.06135757E-12
   1.06499996E-02  -9.81412868E-12
   1.07000005E-02  -1.06022977E-11
   1.07500004E-02  -1.14268360E-11
   1.08000003E-02  -1.22887117E-11
   1.08500002E-02  -1.31889048E-11
   1.09000001E-02  -1.41283851E-11
   1.09500000E-02  -1.51081161E-11
   1.09999999E-02  -1.61290668E-11
   1.10499999E-02  -1.71922025E-11
   1.10999998E-02  -1.82984669E-11
   1.11499997E-02  -1.94488071E-11
   1.11999996E-02  -2.06441565E-11
   1.12500004E-02  -2.18854379E-11
   1.13000004E-02  -2.31735672E-11
   1.13500003E-02  -2.45094361E-11
   1.14000002E-02  -2.58939155E-11
   1.14500001E-02  -2.73278639E-11
   1.15000000E-02  -2.88121124E-11
   1.15499999E-02  -3.03474745E-11
   1.15999999E-02  -3.19347361E-11
   1.16499998E-02  -3.35746535E-11
   1.16999997E-02  -3.52679552E-11
   1.17499996E-02  -3.70153352E-11
   1.18000004E-02  -3.88174527E-11
   1.18500004E-02  -4.06749356E-11
   1.19000003E-02  -4.25883565E-11
   1.19500002E-02  -4.45582564E-11
   1.20000001E-02  -4.65851316E-11
   1.20500000E-02  -4.86694227E-11
   1.20999999E-02  -5.08115286E-11
   1.21499998E-02  -5.30117859E-11
   1.21999998E-02  -5.52704896E-11
   1.22499997E-02  -5.75878581E-11
   1.22999996E-02  -5.99640546E-11
   1.23500004E-02  -6.23991830E-11
   1.24000004E-02  -6.48932574E-11
   1.24500003E-02  -6.74462430E-11
   1.25000002E-02  -7.00580219E-11
   1.25500001E-02  -7.27283928E-11
   1.26000000E-02  -7.54570850E-11
   1.26499999E-02  -7.82437309E-11
   1.26999998E-02  -8.10878864E-11
   1.27499998E-02  -8.39890102E-11
   1.27999997E-02  -8.69464570E-11
   1.28499996E-02  -8.99594912E-11
   1.29000004E-02  -9.30272873E-11
   1.29500004E-02  -9.61488944E-11
   1.30000003E-02  -9.93232649E-11
   1.30500002E-02  -1.02549240E-10
   1.31000001E-02  -1.05825536E-10
   1.31500000E-02  -1.09150758E-10
   1.31999999E-02  -1.12523380E-10
   1.32499998E-02  -1.15941763E-10
   1.32999998E-02  -1.19404112E-10
   1.33499997E-02  -1.22908531E-10
   1.33999996E-02  -1.26452959E-10
   1.34500004E-02  -1.30035219E-10
   1.35000004E-02  -1.33652964E-10
   1.35500003E-02  -1.37303724E-10
   1.36000002E-02  -1.40984849E-10
   1.36500001E-02  -1.44693563E-10
   1.37000000E-02  -1.48426910E-10
   1.37499999E-02  -1.52181795E-10
   1.37999998E-02  -1.55954930E-10
   1.38499998E-02  -1.59742858E-10
   1.38999997E-02  -1.63541999E-10
   1.39499996E-02  -1.67348538E-10
   1.40000004E-02  -1.71158518E-10
   1.40500003E-02  -1.74967776E-10
   1.41000003E-02  -1.78771997E-10
   1.41500002E-02  -1.82566656E-10
   1.42000001E-02  -1.86347021E-10
   1.42500000E-02  -1.90108207E-10
   1.42999999E-02  -1.93845121E-10
   1.43499998E-02  -1.97552461E-10
   1.43999998E-02  -2.01224704E-10
   1.44499997E-02  -2.04856160E-10
   1.44999996E-02  -2.08440931E-10
   1.45500004E-02  -2.11972911E-10
   1.46000003E-02  -2.15445745E-10
   1.46500003E-02  -2.18852950E-10
   1.47000002E-02  -2.22187727E-10
   1.47500001E-02  -2.25443123E-10
   1.48000000E-02  -2.28611990E-10
   1.48499999E-02  -2.31686934E-10
   1.48999998E-02  -2.34660319E-10
   1.49499997E-02  -2.37524306E-10
   1.49999997E-02  -2.40270859E-10
   1.50499996E-02  -2.42891707E-10
   1.51000004E-02  -2.45378357E-10
   1.51500003E-02  -2.47722121E-10
   1.52000003E-02  -2.49914034E-10
   1.52500002E-02  -2.51944965E-10
   1.53000001E-02  -2.53805504E-10
   1.53500000E-02  -2.55486104E-10
   1.53999999E-02  -2.56976940E-10
   1.54499998E-02  -2.58267963E-10
   1.54999997E-02  -2.59348987E-10
   1.55499997E-02  -2.60209548E-10
   1.55999996E-02  -2.60838962E-10
   1.56500004E-02  -2.61226374E-10
   1.56999994E-02  -2.61360711E-10
   1.57500003E-02  -2.61230648E-10
   1.57999992E-02  -2.60824778E-10
   1.58500001E-02  -2.60131389E-10
   1.59000009E-02  -2.59138599E-10
   1.59499999E-02  -2.57834337E-10
   1.60000008E-02  -2.56206417E-10
   1.60499997E-02  -2.54242405E-10
   1.61000006E-02  -2.51929672E-10
   1.61499996E-02  -2.49255450E-10
   1.62000004E-02  -2.46206860E-10
   1.62499994E-02  -2.42770803E-10
   1.63000003E-02  -2.38934039E-10
   1.63499992E-02  -2.34683217E-10
   1.64000001E-02  -2.30004737E-10
   1.64500009E-02  -2.24885013E-10
   1.64999999E-02  -2.19310306E-10
   1.65500008E-02  -2.13266613E-10
   1.65999997E-02  -2.06740056E-10
   1.66500006E-02  -1.99716563E-10
   1.66999996E-02  -1.92181868E-10
   1.67500004E-02  -1.84121787E-10
   1.67999994E-02  -1.75522041E-10
   1.68500002E-02  -1.66368211E-10
   1.68999992E-02  -1.56645946E-10
   1.69500001E-02  -1.46340717E-10
   1.70000009E-02  -1.35438091E-10
   1.70499999E-02  -1.23923621E-10
   1.71000008E-02  -1.11782784E-10
   1.71499997E-02  -9.90011545E-11
   1.72000006E-02  -8.55642918E-11
   1.72499996E-02  -7.14577494E-11
   1.73000004E-02  -5.66672820E-11
   1.73499994E-02  -4.11785848E-11
   1.74000002E-02  -2.49774403E-11
   1.74499992E-02  -8.04980648E-12
   1.75000001E-02   9.61830789E-12
   1.75500009E-02   2.80407399E-11
   1.75999999E-02   4.72311079E-11
   1.76500008E-02   6.72029307E-11
   1.76999997E-02   8.79696177E-11
   1.77500006E-02   1.09544304E-10
   1.77999996E-02   1.31939890E-10
   1.78500004E-02   1.55169017E-10
   1.78999994E-02   1.79244106E-10
   1.79500002E-02   2.04177369E-10
   1.79999992E-02   2.29980618E-10
   1.80500001E-02   2.56665494E-10
   1.81000009E-02   2.84243046E-10
   1.81499999E-02   3.12724208E-10
   1.82000007E-02   3.42119444E-10
   1.82499997E-02   3.72438941E-10
   1.83000006E-02   4.03692385E-10
   1.83499996E-02   4.35888825E-10
   1.84000004E-02   4.69037087E-10
   1.84499994E-02   5.03145636E-10
   1.85000002E-02   5.38222078E-10
   1.85499992E-02   5.74273795E-10
   1.86000001E-02   6.11307505E-10
   1.86500009E-02   6.49329257E-10
   1.86999999E-02   6.88344604E-10
   1.87500007E-02   7.28358485E-10
   1.87999997E-02   7.69375230E-10
   1.88500006E-02   8.11398393E-10
   1.88999996E-02   8.54430915E-10
   1.89500004E-02   8.98475017E-10
   1.89999994E-02   9.43532141E-10
   1.90500002E-02   9.89602844E-10
   1.90999992E-02   1.03668729E-09
   1.91500001E-02   1.08478437E-09
   1.92000009E-02   1.13389254E-09
   1.92499999E-02   1.18400911E-09
   1.93000007E-02   1.23513044E-09
   1.93499997E-02   1.28725230E-09
   1.94000006E-02   1.34036937E-09
   1.94499996E-02   1.39447498E-09
   1.95000004E-02   1.44956214E-09
   1.95499994E-02   1.50562263E-09
   1.96000002E-02   1.56264701E-09
   1.96499992E-02   1.62062475E-09
   1.97000001E-02   1.67954450E-09
   1.97500009E-02   1.73939363E-09
   1.97999999E-02   1.80015836E-09
   1.98500007E-02   1.86182392E-09
   1.98999997E-02   1.92437422E-09
   1.99500006E-02   1.98779171E-09
   1.99999996E-02   2.05205830E-09
   2.00500004E-02   2.11715401E-09
   2.00999994E-02   2.18305796E-09
   2.01500002E-02   2.24974772E-09
   2.01999992E-02   2.31719977E-09
   2.02500001E-02   2.38538944E-09
   2.03000009E-02   2.45428988E-09
   2.03499999E-02   2.52387378E-09
   2.04000007E-02   2.59411226E-09
   2.04499997E-02   2.66497446E-09
   2.05000006E-02   2.73642864E-09
   2.05499995E-02   2.80844148E-09
   2.06000004E-02   2.88097834E-09
   2.06499994E-02   2.95400260E-09
   2.07000002E-02   3.02747671E-09
   2.07499992E-02   3.10136117E-09
   2.08000001E-02   3.17561533E-09
   2.08500009E-02   3.25019700E-09
   2.08999999E-02   3.32506200E-09
   2.09500007E-02   3.40016482E-09
   2.09999997E-02   3.47545881E-09
   2.10500006E-02   3.55089513E-09
   2.10999995E-02   3.62642338E-09
   2.11500004E-02   3.70199227E-09
   2.11999994E-02   3.77754805E-09
   2.12500002E-02   3.85303522E-09
   2.12999992E-02   3.92839805E-09
   2.13500001E-02   4.00357791E-09
   2.14000009E-02   4.07851486E-09
   2.14499999E-02   4.15314716E-09
   2.15000007E-02   4.22741220E-09
   2.15499997E-02   4.30124514E-09
   2.16000006E-02   4.37457937E-09
   2.16499995E-02   4.44734738E-09
   2.17000004E-02   4.51947901E-09
   2.17499994E-02   4.59090321E-09
   2.18000002E-02   4.66154715E-09
   2.18499992E-02   4.73133666E-09
   2.19000001E-02   4.80019580E-09
   2.19500009E-02   4.86804641E-09
   2.19999999E-02   4.93481034E-09
   2.20500007E-02   5.00040631E-09
   2.20999997E-02   5.06475217E-09
   2.21500006E-02   5.12776488E-09
   2.21999995E-02   5.18935872E-09
   2.22500004E-02   5.24944710E-09
   2.22999994E-02   5.30794209E-09
   2.23500002E-02   5.36475397E-09
   2.23999992E-02   5.41979217E-09
   2.24500000E-02   5.47296475E-09
   2.25000009E-02   5.52417800E-09
   2.25499999E-02   5.57333646E-09
   2.26000007E-02   5.62034375E-09
   2.26499997E-02   5.66510394E-09
   2.27000006E-02   5.70751801E-09
   2.27499995E-02   5.74748560E-09
   2.28000004E-02   5.78490589E-09
   2.28499994E-02   5.81967763E-09
   2.29000002E-02   5.85169735E-09
   2.29499992E-02   5.88086069E-09
   2.30000000E-02   5.90706284E-09
   2.30500009E-02   5.93019767E-09
   2.30999999E-02   5.95015948E-09
   2.31500007E-02   5.96684036E-09
   2.31999997E-02   5.98013195E-09
   2.32500006E-02   5.98992633E-09
   2.32999995E-02   5.99611294E-09
   2.33500004E-02   5.99858252E-09
   2.33999994E-02   5.99722316E-09
   2.34500002E-02   5.99192473E-09
   2.34999992E-02   5.98257621E-09
   2.35500000E-02   5.96906524E-09
   2.36000009E-02   5.95127947E-09
   2.36499999E-02   5.92910832E-09
   2.37000007E-02   5.90243854E-09
   2.37499997E-02   5.87115823E-09
   2.38000005E-02   5.83515591E-09
   2.38499995E-02   5.79431791E-09
   2.39000004E-02   5.74853365E-09
   2.39499994E-02   5.69769210E-09
   2.40000002E-02   5.64168268E-09
   2.40499992E-02   5.58039259E-09
   2.41000000E-02   5.51371349E-09
   2.41500009E-02   5.44153611E-09
   2.41999999E-02   5.36375167E-09
   2.42500007E-02   5.28025179E-09
   2.42999997E-02   5.19093035E-09
   2.43500005E-02   5.09568165E-09
   2.43999995E-02   4.99440045E-09
   2.44500004E-02   4.88698326E-09
   2.44999994E-02   4.77332840E-09
   2.45500002E-02   4.65333416E-09
   2.45999992E-02   4.52690196E-09
   2.46500000E-02   4.39393455E-09
   2.47000009E-02   4.25433599E-09
   2.47499999E-02   4.10801393E-09
   2.48000007E-02   3.95487465E-09
   2.48499997E-02   3.79482890E-09
   2.49000005E-02   3.62778918E-09
   2.49499995E-02   3.45366913E-09
   2.50000004E-02   3.27238703E-09
   2.50499994E-02   3.08386205E-09
   2.51000002E-02   2.88801560E-09
   2.51499992E-02   2.68477285E-09
   2.52000000E-02   2.47406251E-09
   2.52500009E-02   2.25581465E-09
   2.52999999E-02   2.02996375E-09
   2.53500007E-02   1.79644744E-09
   2.53999997E-02   1.55520552E-09
   2.54500005E-02   1.30618161E-09
   2.54999995E-02   1.04932396E-09
   2.55500004E-02   7.84583010E-10
   2.55999994E-02   5.11913900E-10
   2.56500002E-02   2.31276776E-10
   2.56999992E-02  -5.73659349E-11
   2.57500000E-02  -3.54046820E-10
   2.58000009E-02  -6.58793908E-10
   2.58499999E-02  -9.71631664E-10
   2.59000007E-02  -1.29257938E-09
   2.59499997E-02  -1.62164993E-09
   2.60000005E-02  -1.95885530E-09
   2.60499995E-02  -2.30420016E-09
   2.61000004E-02  -2.65768385E-09
   2.61499994E-02  -3.01930125E-09
   2.62000002E-02  -3.38904083E-09
   2.62499992E-02  -3.76688636E-09
   2.63000000E-02  -4.15281765E-09
   2.63500009E-02  -4.54680782E-09
   2.63999999E-02  -4.94882402E-09
   2.64500007E-02  -5.35882716E-09
   2.64999997E-02  -5.77677151E-09
   2.65500005E-02  -6.20260820E-09
   2.65999995E-02  -6.63627864E-09
   2.66500004E-02  -7.07772152E-09
   2.66999993E-02  -7.52686624E-09
   2.67500002E-02  -7.98363509E-09
   2.67999992E-02  -8.44794723E-09
   2.68500000E-02  -8.91971297E-09
   2.69000009E-02  -9.39883638E-09
   2.69499999E-02  -9.88521442E-09
   2.70000007E-02  -1.03787361E-08
   2.70499997E-02  -1.08792850E-08
   2.71000005E-02  -1.13867351E-08
   2.71499995E-02  -1.19009567E-08
   2.72000004E-02  -1.24218111E-08
   2.72499993E-02  -1.29491520E-08
   2.73000002E-02  -1.34828264E-08
   2.73499992E-02  -1.40226692E-08
   2.74000000E-02  -1.45685144E-08
   2.74500009E-02  -1.51201842E-08
   2.74999999E-02  -1.56774966E-08
   2.75500007E-02  -1.62402589E-08
   2.75999997E-02  -1.68082703E-08
   2.76500005E-02  -1.73813248E-08
   2.76999995E-02  -1.79592021E-08
   2.77500004E-02  -1.85416837E-08
   2.77999993E-02  -1.91285334E-08
   2.78500002E-02  -1.97195149E-08
   2.78999992E-02  -2.03143777E-08
   2.79500000E-02  -2.09128679E-08
   2.80000009E-02  -2.15147207E-08
   2.80499998E-02  -2.21196625E-08
   2.81000007E-02  -2.27274146E-08
   2.81499997E-02  -2.33376873E-08
   2.82000005E-02  -2.39501841E-08
   2.82499995E-02  -2.45645992E-08
   2.83000004E-02  -2.51806220E-08
   2.83499993E-02  -2.57979273E-08
   2.84000002E-02  -2.64161901E-08
   2.84499992E-02  -2.70350711E-08
   2.85000000E-02  -2.76542238E-08
   2.85500009E-02  -2.82732966E-08
   2.85999998E-02  -2.88919235E-08
   2.86500007E-02  -2.95097422E-08
   2.86999997E-02  -3.01263690E-08
   2.87500005E-02  -3.07414254E-08
   2.87999995E-02  -3.13545137E-08
   2.88500004E-02  -3.19652322E-08
   2.88999993E-02  -3.25731762E-08
   2.89500002E-02  -3.31779297E-08
   2.89999992E-02  -3.37790702E-08
   2.90500000E-02  -3.43761641E-08
   2.91000009E-02  -3.49687781E-08
   2.91499998E-02  -3.55564680E-08
   2.92000007E-02  -3.61387791E-08
   2.92499997E-02  -3.67152531E-08
   2.93000005E-02  -3.72854316E-08
   2.93499995E-02  -3.78488352E-08
   2.94000003E-02  -3.84049876E-08
   2.94499993E-02  -3.89534023E-08
   2.95000002E-02  -3.94935959E-08
   2.95499992E-02  -4.00250677E-08
   2.96000000E-02  -4.05473131E-08
   2.96500009E-02  -4.10598275E-08
   2.96999998E-02  -4.15620995E-08
   2.97500007E-02  -4.20536068E-08
   2.97999997E-02  -4.25338271E-08
   2.98500005E-02  -4.30022347E-08
   2.98999995E-02  -4.34582930E-08
   2.99500003E-02  -4.39014691E-08
   2.99999993E-02  -4.43312160E-08
   3.00500002E-02  -4.47469937E-08
   3.00999992E-02  -4.51482549E-08
   3.01500000E-02  -4.55344384E-08
   3.02000009E-02  -4.59050007E-08
   3.02499998E-02  -4.62593732E-08
   3.03000007E-02  -4.65970018E-08
   3.03499997E-02  -4.69173180E-08
   3.04000005E-02  -4.72197605E-08
   3.04499995E-02  -4.75037609E-08
   3.05000003E-02  -4.77687472E-08
   3.05499993E-02  -4.80141509E-08
   3.06000002E-02  -4.82394000E-08
   3.06499992E-02  -4.84439298E-08
   3.07000000E-02  -4.86271645E-08
   3.07500008E-02  -4.87885323E-08
   3.07999998E-02  -4.89274612E-08
   3.08500007E-02  -4.90433862E-08
   3.08999997E-02  -4.91357355E-08
   3.09500005E-02  -4.92039405E-08
   3.09999995E-02  -4.92474364E-08
   3.10500003E-02  -4.92656582E-08
   3.10999993E-02  -4.92580448E-08
   3.11500002E-02  -4.92240382E-08
   3.11999992E-02  -4.91630843E-08
   3.12500000E-02  -4.90746324E-08
   3.13000008E-02  -4.89581424E-08
   3.13500017E-02  -4.88130603E-08
   3.13999988E-02  -4.86388529E-08
   3.14499997E-02  -4.84349840E-08
   3.15000005E-02  -4.82009312E-08
   3.15500014E-02  -4.79361724E-08
   3.15999985E-02  -4.76401958E-08
   3.16499993E-02  -4.73124935E-08
   3.17000002E-02  -4.69525681E-08
   3.17500010E-02  -4.65599328E-08
   3.18000019E-02  -4.61340903E-08
   3.18499990E-02  -4.56745646E-08
   3.18999998E-02  -4.51808937E-08
   3.19500007E-02  -4.46526265E-08
   3.20000015E-02  -4.40893118E-08
   3.20499986E-02  -4.34905090E-08
   3.20999995E-02  -4.28557989E-08
   3.21500003E-02  -4.21847695E-08
   3.22000012E-02  -4.14770156E-08
   3.22499983E-02  -4.07321394E-08
   3.22999991E-02  -3.99497786E-08
   3.23500000E-02  -3.91295529E-08
   3.24000008E-02  -3.82711178E-08
   3.24500017E-02  -3.73741429E-08
   3.24999988E-02  -3.64383048E-08
   3.25499997E-02  -3.54632839E-08
   3.26000005E-02  -3.44487923E-08
   3.26500013E-02  -3.33945529E-08
   3.26999985E-02  -3.23003064E-08
   3.27499993E-02  -3.11658148E-08
   3.28000002E-02  -2.99908507E-08
   3.28500010E-02  -2.87751991E-08
   3.29000019E-02  -2.75186700E-08
   3.29499990E-02  -2.62210911E-08
   3.29999998E-02  -2.48823078E-08
   3.30500007E-02  -2.35021904E-08
   3.31000015E-02  -2.20806164E-08
   3.31499986E-02  -2.06174935E-08
   3.31999995E-02  -1.91127452E-08
   3.32500003E-02  -1.75663200E-08
   3.33000012E-02  -1.59781859E-08
   3.33499983E-02  -1.43483323E-08
   3.33999991E-02  -1.26767716E-08
   3.34500000E-02  -1.09635376E-08
   3.35000008E-02  -9.20868981E-09
   3.35500017E-02  -7.41230988E-09
   3.35999988E-02  -5.57449598E-09
   3.36499996E-02  -3.69537645E-09
   3.37000005E-02  -1.77510628E-09
   3.37500013E-02   1.86139923E-10
   3.37999985E-02   2.18815144E-09
   3.38499993E-02   4.23069979E-09
   3.39000002E-02   6.31353814E-09
   3.39500010E-02   8.43637871E-09
   3.40000018E-02   1.05989111E-08
   3.40499990E-02   1.28008120E-08
   3.40999998E-02   1.50417190E-08
   3.41500007E-02   1.73212484E-08
   3.42000015E-02   1.96389784E-08
   3.42499986E-02   2.19944720E-08
   3.42999995E-02   2.43872638E-08
   3.43500003E-02   2.68168403E-08
   3.44000012E-02   2.92826794E-08
   3.44499983E-02   3.17842215E-08
   3.44999991E-02   3.43208875E-08
   3.45500000E-02   3.68920610E-08
   3.46000008E-02   3.94971060E-08
   3.46500017E-02   4.21353370E-08
   3.46999988E-02   4.48060540E-08
   3.47499996E-02   4.75085358E-08
   3.48000005E-02   5.02420043E-08
   3.48500013E-02   5.30056781E-08
   3.48999985E-02   5.57987327E-08
   3.49499993E-02   5.86203157E-08
   3.50000001E-02   6.14695423E-08
   3.50500010E-02   6.43454925E-08
   3.51000018E-02   6.72472424E-08
   3.51499990E-02   7.01738045E-08
   3.51999998E-02   7.31241840E-08
   3.52500007E-02   7.60973506E-08
   3.53000015E-02   7.90922243E-08
   3.53499986E-02   8.21077251E-08
   3.53999995E-02   8.51427231E-08
   3.54500003E-02   8.81960673E-08
   3.55000012E-02   9.12665783E-08
   3.55499983E-02   9.43530480E-08
   3.55999991E-02   9.74542189E-08
   3.56500000E-02   1.00568826E-07
   3.57000008E-02   1.03695569E-07
   3.57500017E-02   1.06833113E-07
   3.57999988E-02   1.09980100E-07
   3.58499996E-02   1.13135144E-07
   3.59000005E-02   1.16296832E-07
   3.59500013E-02   1.19463721E-07
   3.59999985E-02   1.22634333E-07
   3.60499993E-02   1.25807176E-07
   3.61000001E-02   1.28980730E-07
   3.61500010E-02   1.32153431E-07
   3.62000018E-02   1.35323688E-07
   3.62499990E-02   1.38489909E-07
   3.62999998E-02   1.41650474E-07
   3.63500006E-02   1.44803721E-07
   3.64000015E-02   1.47947958E-07
   3.64499986E-02   1.51081480E-07
   3.64999995E-02   1.54202567E-07
   3.65500003E-02   1.57309472E-07
   3.66000012E-02   1.60400418E-07
   3.66499983E-02   1.63473615E-07
   3.66999991E-02   1.66527215E-07
   3.67500000E-02   1.69559414E-07
   3.68000008E-02   1.72568335E-07
   3.68500017E-02   1.75552103E-07
   3.68999988E-02   1.78508799E-07
   3.69499996E-02   1.81436548E-07
   3.70000005E-02   1.84333373E-07
   3.70500013E-02   1.87197358E-07
   3.70999984E-02   1.90026512E-07
   3.71499993E-02   1.92818860E-07
   3.72000001E-02   1.95572412E-07
   3.72500010E-02   1.98285136E-07
   3.73000018E-02   2.00955014E-07
   3.73499990E-02   2.03580029E-07
   3.73999998E-02   2.06158120E-07
   3.74500006E-02   2.08687226E-07
   3.75000015E-02   2.11165258E-07
   3.75499986E-02   2.13590155E-07
   3.75999995E-02   2.15959844E-07
   3.76500003E-02   2.18272206E-07
   3.77000012E-02   2.20525166E-07
   3.77499983E-02   2.22716594E-07
   3.77999991E-02   2.24844385E-07
   3.78500000E-02   2.26906451E-07
   3.79000008E-02   2.28900660E-07
   3.79500017E-02   2.30824895E-07
   3.79999988E-02   2.32677039E-07
   3.80499996E-02   2.34455001E-07
   3.81000005E-02   2.36156637E-07
   3.81500013E-02   2.37779844E-07
   3.81999984E-02   2.39322532E-07
   3.82499993E-02   2.40782583E-07
   3.83000001E-02   2.42157910E-07
   3.83500010E-02   2.43446436E-07
   3.84000018E-02   2.44646060E-07
   3.84499989E-02   2.45754734E-07
   3.84999998E-02   2.46770384E-07
   3.85500006E-02   2.47690991E-07
   3.86000015E-02   2.48514510E-07
   3.86499986E-02   2.49238951E-07
   3.86999995E-02   2.49862268E-07
   3.87500003E-02   2.50382499E-07
   3.88000011E-02   2.50797655E-07
   3.88499983E-02   2.51105831E-07
   3.88999991E-02   2.51305096E-07
   3.89500000E-02   2.51393516E-07
   3.90000008E-02   2.51369244E-07
   3.90500017E-02   2.51230404E-07
   3.90999988E-02   2.50975148E-07
   3.91499996E-02   2.50601715E-07
   3.92000005E-02   2.50108343E-07
   3.92500013E-02   2.49493212E-07
   3.92999984E-02   2.48754674E-07
   3.93499993E-02   2.47890995E-07
   3.94000001E-02   2.46900555E-07
   3.94500010E-02   2.45781735E-07
   3.95000018E-02   2.44532941E-07
   3.95499989E-02   2.43152641E-07
   3.95999998E-02   2.41639356E-07
   3.96500006E-02   2.39991607E-07
   3.97000015E-02   2.38207974E-07
   3.97499986E-02   2.36287050E-07
   3.97999994E-02   2.34227528E-07
   3.98500003E-02   2.32028114E-07
   3.99000011E-02   2.29687558E-07
   3.99499983E-02   2.27204680E-07
   3.99999991E-02   2.24578272E-07
   4.00500000E-02   2.21807269E-07
   4.01000008E-02   2.18890605E-07
   4.01500016E-02   2.15827299E-07
   4.01999988E-02   2.12616428E-07
   4.02499996E-02   2.09257053E-07
   4.03000005E-02   2.05748378E-07
   4.03500013E-02   2.02089595E-07
   4.03999984E-02   1.98279992E-07
   4.04499993E-02   1.94318886E-07
   4.05000001E-02   1.90205711E-07
   4.05500010E-02   1.85939896E-07
   4.06000018E-02   1.81520988E-07
   4.06499989E-02   1.76948603E-07
   4.06999998E-02   1.72222343E-07
   4.07500006E-02   1.67341952E-07
   4.08000015E-02   1.62307188E-07
   4.08499986E-02   1.57117896E-07
   4.08999994E-02   1.51774017E-07
   4.09500003E-02   1.46275539E-07
   4.10000011E-02   1.40622490E-07
   4.10499983E-02   1.34815039E-07
   4.10999991E-02   1.28853358E-07
   4.11499999E-02   1.22737688E-07
   4.12000008E-02   1.16468435E-07
   4.12500016E-02   1.10046031E-07
   4.12999988E-02   1.03470946E-07
   4.13499996E-02   9.67437614E-08
   4.14000005E-02   8.98651180E-08
   4.14500013E-02   8.28357614E-08
   4.14999984E-02   7.56565157E-08
   4.15499993E-02   6.83282266E-08
   4.16000001E-02   6.08518604E-08
   4.16500010E-02   5.32285114E-08
   4.17000018E-02   4.54592701E-08
   4.17499989E-02   3.75453411E-08
   4.17999998E-02   2.94880476E-08
   4.18500006E-02   2.12887343E-08
   4.19000015E-02   1.29488544E-08
   4.19499986E-02   4.46996573E-09
   4.19999994E-02  -4.14629175E-09
   4.20500003E-02  -1.28982203E-08
   4.21000011E-02  -2.17840839E-08
   4.21499982E-02  -3.08019743E-08
   4.21999991E-02  -3.99499207E-08
   4.22499999E-02  -4.92259211E-08
   4.23000008E-02  -5.86278013E-08
   4.23500016E-02  -6.81533479E-08
   4.23999988E-02  -7.78003013E-08
   4.24499996E-02  -8.75662423E-08
   4.25000004E-02  -9.74487051E-08
   4.25500013E-02  -1.07445175E-07
   4.25999984E-02  -1.17552965E-07
   4.26499993E-02  -1.27769354E-07
   4.27000001E-02  -1.38091565E-07
   4.27500010E-02  -1.48516691E-07
   4.28000018E-02  -1.59041747E-07