   0.00000000       0.00000000    
   4.99999987E-05   0.00000000    
   9.99999975E-05   0.00000000    
   1.50000007E-04   0.00000000    
   1.99999995E-04   5.06356257E-27
   2.50000012E-04   5.07108170E-26
   3.00000014E-04   2.74292040E-25
   3.49999988E-04   1.06879983E-24
   3.99999990E-04   3.36675145E-24
   4.49999992E-04   9.11319176E-24
   5.00000024E-04   2.19985207E-23
   5.49999997E-04   4.85327203E-23
   6.00000028E-04   9.95553822E-23
   6.50000002E-04   1.92287824E-22
   6.99999975E-04   3.53043073E-22
   7.50000007E-04   6.20723773E-22
   7.99999980E-04   1.05124871E-21
   8.50000011E-04   1.72306891E-21
   8.99999985E-04   2.74391925E-21
   9.50000016E-04   4.25900070E-21
   1.00000005E-03   6.46080686E-21
   1.04999996E-03   9.60071702E-21
   1.09999999E-03   1.40026168E-20
   1.15000003E-03   2.00788352E-20
   1.20000006E-03   2.83484263E-20
   1.24999997E-03   3.94582665E-20
   1.30000000E-03   5.42070972E-20
   1.35000004E-03   7.35726619E-20
   1.39999995E-03   9.87425854E-20
   1.44999998E-03   1.31148982E-19
   1.50000001E-03   1.72506552E-19
   1.55000004E-03   2.24855685E-19
   1.59999996E-03   2.90609952E-19
   1.64999999E-03   3.72608418E-19
   1.70000002E-03   4.74172135E-19
   1.75000005E-03   5.99167605E-19
   1.79999997E-03   7.52076025E-19
   1.85000000E-03   9.38067172E-19
   1.90000003E-03   1.16308077E-18
   1.94999995E-03   1.43391366E-18
   2.00000009E-03   1.75831570E-18
   2.05000001E-03   2.14509191E-18
   2.09999993E-03   2.60420652E-18
   2.15000007E-03   3.14690566E-18
   2.19999999E-03   3.78584230E-18
   2.24999990E-03   4.53520796E-18
   2.30000005E-03   5.41087625E-18
   2.34999997E-03   6.43054799E-18
   2.40000011E-03   7.61390389E-18
   2.45000003E-03   8.98279185E-18
   2.49999994E-03   1.05613982E-17
   2.55000009E-03   1.23764236E-17
   2.60000001E-03   1.44573039E-17
   2.64999992E-03   1.68363779E-17
   2.70000007E-03   1.95491350E-17
   2.74999999E-03   2.26344376E-17
   2.79999990E-03   2.61347384E-17
   2.85000005E-03   3.00963512E-17
   2.89999996E-03   3.45697009E-17
   2.95000011E-03   3.96095668E-17
   3.00000003E-03   4.52753536E-17
   3.04999994E-03   5.16314525E-17
   3.10000009E-03   5.87474656E-17
   3.15000000E-03   6.66985109E-17
   3.19999992E-03   7.55655893E-17
   3.25000007E-03   8.54358591E-17
   3.29999998E-03   9.64029307E-17
   3.34999990E-03   1.08567297E-16
   3.40000005E-03   1.22036682E-16
   3.44999996E-03   1.36926423E-16
   3.50000011E-03   1.53359736E-16
   3.55000002E-03   1.71468043E-16
   3.59999994E-03   1.91391356E-16
   3.65000009E-03   2.13278939E-16
   3.70000000E-03   2.37289398E-16
   3.74999992E-03   2.63591280E-16
   3.80000006E-03   2.92363216E-16
   3.84999998E-03   3.23794491E-16
   3.89999989E-03   3.58085402E-16
   3.94999981E-03   3.95447761E-16
   4.00000019E-03   4.36105210E-16
   4.05000011E-03   4.80293939E-16
   4.10000002E-03   5.28262474E-16
   4.14999994E-03   5.80271991E-16
   4.19999985E-03   6.36597617E-16
   4.25000023E-03   6.97528297E-16
   4.30000015E-03   7.63367427E-16
   4.35000006E-03   8.34432644E-16
   4.39999998E-03   9.11056462E-16
   4.44999989E-03   9.93586694E-16
   4.49999981E-03   1.08238772E-15
   4.55000019E-03   1.17783902E-15
   4.60000010E-03   1.28033731E-15
   4.65000002E-03   1.39029542E-15
   4.69999993E-03   1.50814227E-15
   4.74999985E-03   1.63432530E-15
   4.80000023E-03   1.76930995E-15
   4.85000014E-03   1.91357808E-15
   4.90000006E-03   2.06762966E-15
   4.94999997E-03   2.23198433E-15
   4.99999989E-03   2.40717827E-15
   5.04999980E-03   2.59376629E-15
   5.10000018E-03   2.79232161E-15
   5.15000010E-03   3.00343632E-15
   5.20000001E-03   3.22772217E-15
   5.24999993E-03   3.46580725E-15
   5.29999984E-03   3.71833784E-15
   5.35000023E-03   3.98598204E-15
   5.40000014E-03   4.26942214E-15
   5.45000006E-03   4.56935904E-15
   5.49999997E-03   4.88651698E-15
   5.54999989E-03   5.22163201E-15
   5.59999980E-03   5.57545758E-15
   5.65000018E-03   5.94876618E-15
   5.70000010E-03   6.34234723E-15
   5.75000001E-03   6.75700459E-15
   5.79999993E-03   7.19355436E-15
   5.84999984E-03   7.65283002E-15
   5.90000022E-03   8.13567777E-15
   5.95000014E-03   8.64296072E-15
   6.00000005E-03   9.17554793E-15
   6.04999997E-03   9.73432371E-15
   6.09999988E-03   1.03201817E-14
   6.14999980E-03   1.09340247E-14
   6.20000018E-03   1.15767610E-14
   6.25000009E-03   1.22493145E-14
   6.30000001E-03   1.29526118E-14
   6.34999992E-03   1.36875823E-14
   6.39999984E-03   1.44551543E-14
   6.45000022E-03   1.52562645E-14
   6.50000013E-03   1.60918421E-14
   6.55000005E-03   1.69628122E-14
   6.59999996E-03   1.78701099E-14
   6.64999988E-03   1.88146465E-14
   6.69999979E-03   1.97973250E-14
   6.75000018E-03   2.08190517E-14
   6.80000009E-03   2.18807059E-14
   6.85000001E-03   2.29831514E-14
   6.89999992E-03   2.41272524E-14
   6.94999984E-03   2.53138693E-14
   7.00000022E-03   2.65437984E-14
   7.05000013E-03   2.78178190E-14
   7.10000005E-03   2.91367103E-14
   7.14999996E-03   3.05011990E-14
   7.19999988E-03   3.19119765E-14
   7.24999979E-03   3.33696863E-14
   7.30000017E-03   3.48749384E-14
   7.35000009E-03   3.64283256E-14
   7.40000000E-03   3.80303699E-14
   7.44999992E-03   3.96815081E-14
   7.49999983E-03   4.13821572E-14
   7.55000021E-03   4.31326998E-14
   7.60000013E-03   4.49334106E-14
   7.65000004E-03   4.67845130E-14
   7.69999996E-03   4.86861765E-14
   7.74999987E-03   5.06384892E-14
   7.79999979E-03   5.26414646E-14
   7.84999970E-03   5.46950079E-14
   7.89999962E-03   5.67989056E-14
   7.95000046E-03   5.89529239E-14
   8.00000038E-03   6.11566868E-14
   8.05000030E-03   6.34096860E-14
   8.10000021E-03   6.57113592E-14
   8.15000013E-03   6.80610150E-14
   8.20000004E-03   7.04578336E-14
   8.24999996E-03   7.29008799E-14
   8.29999987E-03   7.53891171E-14
   8.34999979E-03   7.79213391E-14
   8.39999970E-03   8.04962040E-14
   8.44999962E-03   8.31122416E-14
   8.50000046E-03   8.57677847E-14
   8.55000038E-03   8.84610107E-14
   8.60000029E-03   9.11899815E-14
   8.65000021E-03   9.39526438E-14
   8.70000012E-03   9.67465718E-14
   8.75000004E-03   9.95692041E-14
   8.79999995E-03   1.02417972E-13
   8.84999987E-03   1.05290105E-13
   8.89999978E-03   1.08182499E-13
   8.94999970E-03   1.11091840E-13
   8.99999961E-03   1.14014700E-13
   9.05000046E-03   1.16947332E-13
   9.10000037E-03   1.19885791E-13
   9.15000029E-03   1.22825971E-13
   9.20000020E-03   1.25763508E-13
   9.25000012E-03   1.28693809E-13
   9.30000003E-03   1.31611884E-13
   9.34999995E-03   1.34512749E-13
   9.39999986E-03   1.37391075E-13
   9.44999978E-03   1.40241090E-13
   9.49999969E-03   1.43056858E-13
   9.54999961E-03   1.45832226E-13
   9.60000046E-03   1.48560729E-13
   9.65000037E-03   1.51235578E-13
   9.70000029E-03   1.53849793E-13
   9.75000020E-03   1.56396082E-13
   9.80000012E-03   1.58866762E-13
   9.85000003E-03   1.61253741E-13
   9.89999995E-03   1.63548672E-13
   9.94999986E-03   1.65743152E-13
   9.99999978E-03   1.67828438E-13
   1.00499997E-02   1.69795208E-13
   1.00999996E-02   1.71633839E-13
   1.01500005E-02   1.73334410E-13
   1.02000004E-02   1.74886689E-13
   1.02500003E-02   1.76280092E-13
   1.03000002E-02   1.77503926E-13
   1.03500001E-02   1.78546875E-13
   1.04000000E-02   1.79397092E-13
   1.04499999E-02   1.80042789E-13
   1.04999999E-02   1.80471564E-13
   1.05499998E-02   1.80670610E-13
   1.05999997E-02   1.80627296E-13
   1.06499996E-02   1.80328436E-13
   1.07000005E-02   1.79759948E-13
   1.07500004E-02   1.78907670E-13
   1.08000003E-02   1.77757128E-13
   1.08500002E-02   1.76293428E-13
   1.09000001E-02   1.74501554E-13
   1.09500000E-02   1.72366082E-13
   1.09999999E-02   1.69871116E-13
   1.10499999E-02   1.67000338E-13
   1.10999998E-02   1.63737364E-13
   1.11499997E-02   1.60065320E-13
   1.11999996E-02   1.55966833E-13
   1.12500004E-02   1.51424134E-13
   1.13000004E-02   1.46419891E-13
   1.13500003E-02   1.40935779E-13
   1.14000002E-02   1.34952569E-13
   1.14500001E-02   1.28451516E-13
   1.15000000E-02   1.21413296E-13
   1.15499999E-02   1.13818609E-13
   1.15999999E-02   1.05647682E-13
   1.16499998E-02   9.68804098E-14
   1.16999997E-02   8.74964706E-14
   1.17499996E-02   7.74750340E-14
   1.18000004E-02   6.67953784E-14
   1.18500004E-02   5.54365005E-14
   1.19000003E-02   4.33772620E-14
   1.19500002E-02   3.05954298E-14
   1.20000001E-02   1.70690505E-14
   1.20500000E-02   2.77672858E-15
   1.20999999E-02  -1.23033958E-14
   1.21499998E-02  -2.81938169E-14
   1.21999998E-02  -4.49166766E-14
   1.22499997E-02  -6.24948498E-14
   1.22999996E-02  -8.09515486E-14
   1.23500004E-02  -1.00308630E-13
   1.24000004E-02  -1.20589330E-13
   1.24500003E-02  -1.41816761E-13
   1.25000002E-02  -1.64013632E-13
   1.25500001E-02  -1.87202697E-13
   1.26000000E-02  -2.11407389E-13
   1.26499999E-02  -2.36650109E-13
   1.26999998E-02  -2.62952773E-13
   1.27499998E-02  -2.90338906E-13
   1.27999997E-02  -3.18831360E-13
   1.28499996E-02  -3.48452360E-13
   1.29000004E-02  -3.79223508E-13
   1.29500004E-02  -4.11166652E-13
   1.30000003E-02  -4.44303584E-13
   1.30500002E-02  -4.78656774E-13
   1.31000001E-02  -5.14246957E-13
   1.31500000E-02  -5.51095356E-13
   1.31999999E-02  -5.89223711E-13
   1.32499998E-02  -6.28651048E-13
   1.32999998E-02  -6.69396396E-13
   1.33499997E-02  -7.11480029E-13
   1.33999996E-02  -7.54920974E-13
   1.34500004E-02  -7.99736850E-13
   1.35000004E-02  -8.45946414E-13
   1.35500003E-02  -8.93566146E-13
   1.36000002E-02  -9.42610898E-13
   1.36500001E-02  -9.93096664E-13
   1.37000000E-02  -1.04503851E-12
   1.37499999E-02  -1.09845108E-12
   1.37999998E-02  -1.15334858E-12
   1.38499998E-02  -1.20974313E-12
   1.38999997E-02  -1.26764582E-12
   1.39499996E-02  -1.32706747E-12
   1.40000004E-02  -1.38801785E-12
   1.40500003E-02  -1.45050541E-12
   1.41000003E-02  -1.51453763E-12
   1.41500002E-02  -1.58012004E-12
   1.42000001E-02  -1.64725828E-12
   1.42500000E-02  -1.71595800E-12
   1.42999999E-02  -1.78622091E-12
   1.43499998E-02  -1.85804714E-12
   1.43999998E-02  -1.93143765E-12
   1.44499997E-02  -2.00638963E-12
   1.44999996E-02  -2.08289982E-12
   1.45500004E-02  -2.16096520E-12
   1.46000003E-02  -2.24058185E-12
   1.46500003E-02  -2.32174002E-12
   1.47000002E-02  -2.40442779E-12
   1.47500001E-02  -2.48863430E-12
   1.48000000E-02  -2.57434894E-12
   1.48499999E-02  -2.66155739E-12
   1.48999998E-02  -2.75023992E-12
   1.49499997E-02  -2.84037854E-12
   1.49999997E-02  -2.93195329E-12
   1.50499996E-02  -3.02494097E-12
   1.51000004E-02  -3.11931709E-12
   1.51500003E-02  -3.21505474E-12
   1.52000003E-02  -3.31212163E-12
   1.52500002E-02  -3.41048739E-12
   1.53000001E-02  -3.51012036E-12
   1.53500000E-02  -3.61098109E-12
   1.53999999E-02  -3.71303032E-12
   1.54499998E-02  -3.81622641E-12
   1.54999997E-02  -3.92052623E-12
   1.55499997E-02  -4.02588553E-12
   1.55999996E-02  -4.13225313E-12
   1.56500004E-02  -4.23957614E-12
   1.56999994E-02  -4.34780077E-12
   1.57500003E-02  -4.45687107E-12
   1.57999992E-02  -4.56672547E-12
   1.58500001E-02  -4.67730021E-12
   1.59000009E-02  -4.78852808E-12
   1.59499999E-02  -4.90034185E-12
   1.60000008E-02  -5.01266997E-12
   1.60499997E-02  -5.12543567E-12
   1.61000006E-02  -5.23855959E-12
   1.61499996E-02  -5.35196150E-12
   1.62000004E-02  -5.46555769E-12
   1.62499994E-02  -5.57925971E-12
   1.63000003E-02  -5.69297604E-12
   1.63499992E-02  -5.80661300E-12
   1.64000001E-02  -5.92007086E-12
   1.64500009E-02  -6.03325029E-12
   1.64999999E-02  -6.14604721E-12
   1.65500008E-02  -6.25835234E-12
   1.65999997E-02  -6.37005422E-12
   1.66500006E-02  -6.48103966E-12
   1.66999996E-02  -6.59118723E-12
   1.67500004E-02  -6.70037810E-12
   1.67999994E-02  -6.80848563E-12
   1.68500002E-02  -6.91538016E-12
   1.68999992E-02  -7.02093071E-12
   1.69500001E-02  -7.12500024E-12
   1.70000009E-02  -7.22744954E-12
   1.70499999E-02  -7.32813549E-12
   1.71000008E-02  -7.42691152E-12
   1.71499997E-02  -7.52362755E-12
   1.72000006E-02  -7.61812748E-12
   1.72499996E-02  -7.71025691E-12
   1.73000004E-02  -7.79985538E-12
   1.73499994E-02  -7.88675722E-12
   1.74000002E-02  -7.97079330E-12
   1.74499992E-02  -8.05179361E-12
   1.75000001E-02  -8.12958208E-12
   1.75500009E-02  -8.20398176E-12
   1.75999999E-02  -8.27481052E-12
   1.76500008E-02  -8.34188447E-12
   1.76999997E-02  -8.40501366E-12
   1.77500006E-02  -8.46400727E-12
   1.77999996E-02  -8.51867188E-12
   1.78500004E-02  -8.56880712E-12
   1.78999994E-02  -8.61421264E-12
   1.79500002E-02  -8.65468548E-12
   1.79999992E-02  -8.69001919E-12
   1.80500001E-02  -8.72000128E-12
   1.81000009E-02  -8.74442185E-12
   1.81499999E-02  -8.76306232E-12
   1.82000007E-02  -8.77570586E-12
   1.82499997E-02  -8.78213040E-12
   1.83000006E-02  -8.78211132E-12
   1.83499996E-02  -8.77542396E-12
   1.84000004E-02  -8.76183848E-12
   1.84499994E-02  -8.74112588E-12
   1.85000002E-02  -8.71305285E-12
   1.85499992E-02  -8.67738520E-12
   1.86000001E-02  -8.63388441E-12
   1.86500009E-02  -8.58231281E-12
   1.86999999E-02  -8.52243276E-12
   1.87500007E-02  -8.45400052E-12
   1.87999997E-02  -8.37677323E-12
   1.88500006E-02  -8.29050890E-12
   1.88999996E-02  -8.19496034E-12
   1.89500004E-02  -8.08988120E-12
   1.89999994E-02  -7.97502602E-12
   1.90500002E-02  -7.85014675E-12
   1.90999992E-02  -7.71499357E-12
   1.91500001E-02  -7.56932017E-12
   1.92000009E-02  -7.41287674E-12
   1.92499999E-02  -7.24541607E-12
   1.93000007E-02  -7.06669012E-12
   1.93499997E-02  -6.87645080E-12
   1.94000006E-02  -6.67445266E-12
   1.94499996E-02  -6.46044850E-12
   1.95000004E-02  -6.23419502E-12
   1.95499994E-02  -5.99544980E-12
   1.96000002E-02  -5.74396867E-12
   1.96499992E-02  -5.47951268E-12
   1.97000001E-02  -5.20184503E-12
   1.97500009E-02  -4.91073024E-12
   1.97999999E-02  -4.60593369E-12
   1.98500007E-02  -4.28722509E-12
   1.98999997E-02  -3.95437719E-12
   1.99500006E-02  -3.60716600E-12
   1.99999996E-02  -3.24536903E-12
   2.00500004E-02  -2.86877119E-12
   2.00999994E-02  -2.47715932E-12
   2.01500002E-02  -2.07032373E-12
   2.01999992E-02  -1.64806005E-12
   2.02500001E-02  -1.21016901E-12
   2.03000009E-02  -7.56457397E-13
   2.03499999E-02  -2.86735750E-13
   2.04000007E-02   1.99177941E-13
   2.04499997E-02   7.01461675E-13
   2.05000006E-02   1.22028743E-12
   2.05499995E-02   1.75581782E-12
   2.06000004E-02   2.30820875E-12
   2.06499994E-02   2.87761134E-12
   2.07000002E-02   3.46416862E-12
   2.07499992E-02   4.06801285E-12
   2.08000001E-02   4.68927154E-12
   2.08500009E-02   5.32806048E-12
   2.08999999E-02   5.98448981E-12
   2.09500007E-02   6.65866060E-12
   2.09999997E-02   7.35066175E-12
   2.10500006E-02   8.06057218E-12
   2.10999995E-02   8.78845781E-12
   2.11500004E-02   9.53437936E-12
   2.11999994E-02   1.02983871E-11
   2.12500002E-02   1.10805184E-11
   2.12999992E-02   1.18807976E-11
   2.13500001E-02   1.26992401E-11
   2.14000009E-02   1.35358452E-11
   2.14499999E-02   1.43906042E-11
   2.15000007E-02   1.52634936E-11
   2.15499997E-02   1.61544719E-11
   2.16000006E-02   1.70634860E-11
   2.16499995E-02   1.79904737E-11
   2.17000004E-02   1.89353533E-11
   2.17499994E-02   1.98980329E-11
   2.18000002E-02   2.08784014E-11
   2.18499992E-02   2.18763341E-11
   2.19000001E-02   2.28916937E-11
   2.19500009E-02   2.39243226E-11
   2.19999999E-02   2.49740471E-11
   2.20500007E-02   2.60406679E-11
   2.20999997E-02   2.71239801E-11
   2.21500006E-02   2.82237671E-11
   2.21999995E-02   2.93397910E-11
   2.22500004E-02   3.04717918E-11
   2.22999994E-02   3.16194813E-11
   2.23500002E-02   3.27825753E-11
   2.23999992E-02   3.39607439E-11
   2.24500000E-02   3.51536543E-11
   2.25000009E-02   3.63609663E-11
   2.25499999E-02   3.75822984E-11
   2.26000007E-02   3.88172446E-11
   2.26499997E-02   4.00654024E-11
   2.27000006E-02   4.13263417E-11
   2.27499995E-02   4.25995905E-11
   2.28000004E-02   4.38846737E-11
   2.28499994E-02   4.51811054E-11
   2.29000002E-02   4.64883583E-11
   2.29499992E-02   4.78058947E-11
   2.30000000E-02   4.91331385E-11
   2.30500009E-02   5.04695105E-11
   2.30999999E-02   5.18144035E-11
   2.31500007E-02   5.31671825E-11
   2.31999997E-02   5.45271918E-11
   2.32500006E-02   5.58937514E-11
   2.32999995E-02   5.72661675E-11
   2.33500004E-02   5.86437149E-11
   2.33999994E-02   6.00256581E-11
   2.34500002E-02   6.14112233E-11
   2.34999992E-02   6.27996058E-11
   2.35500000E-02   6.41899867E-11
   2.36000009E-02   6.55815263E-11
   2.36499999E-02   6.69733644E-11
   2.37000007E-02   6.83646126E-11
   2.37499997E-02   6.97543481E-11
   2.38000005E-02   7.11416412E-11
   2.38499995E-02   7.25255273E-11
   2.39000004E-02   7.39050279E-11
   2.39499994E-02   7.52791163E-11
   2.40000002E-02   7.66467653E-11
   2.40499992E-02   7.80069342E-11
   2.41000000E-02   7.93585406E-11
   2.41500009E-02   8.07004741E-11
   2.41999999E-02   8.20316176E-11
   2.42500007E-02   8.33508124E-11
   2.42999997E-02   8.46568649E-11
   2.43500005E-02   8.59486024E-11
   2.43999995E-02   8.72247968E-11
   2.44500004E-02   8.84841853E-11
   2.44999994E-02   8.97255117E-11
   2.45500002E-02   9.09474995E-11
   2.45999992E-02   9.21488510E-11
   2.46500000E-02   9.33282202E-11
   2.47000009E-02   9.44842538E-11
   2.47499999E-02   9.56155710E-11
   2.48000007E-02   9.67207842E-11
   2.48499997E-02   9.77984846E-11
   2.49000005E-02   9.88472429E-11
   2.49499995E-02   9.98656088E-11
   2.50000004E-02   1.00852111E-10
   2.50499994E-02   1.01805252E-10
   2.51000002E-02   1.02723538E-10
   2.51499992E-02   1.03605437E-10
   2.52000000E-02   1.04449387E-10
   2.52500009E-02   1.05253833E-10
   2.52999999E-02   1.06017216E-10
   2.53500007E-02   1.06737966E-10
   2.53999997E-02   1.07414480E-10
   2.54500005E-02   1.08045101E-10
   2.54999995E-02   1.08628231E-10
   2.55500004E-02   1.09162214E-10
   2.55999994E-02   1.09645376E-10
   2.56500002E-02   1.10076066E-10
   2.56999992E-02   1.10452612E-10
   2.57500000E-02   1.10773321E-10
   2.58000009E-02   1.11036486E-10
   2.58499999E-02   1.11240427E-10
   2.59000007E-02   1.11383458E-10
   2.59499997E-02   1.11463831E-10
   2.60000005E-02   1.11479811E-10
   2.60499995E-02   1.11429685E-10
   2.61000004E-02   1.11311717E-10
   2.61499994E-02   1.11124214E-10
   2.62000002E-02   1.10865414E-10
   2.62499992E-02   1.10533610E-10
   2.63000000E-02   1.10127081E-10
   2.63500009E-02   1.09644058E-10
   2.63999999E-02   1.09082847E-10
   2.64500007E-02   1.08441769E-10
   2.64999997E-02   1.07719063E-10
   2.65500005E-02   1.06913034E-10
   2.65999995E-02   1.06021983E-10
   2.66500004E-02   1.05044223E-10
   2.66999993E-02   1.03978069E-10
   2.67500002E-02   1.02821883E-10
   2.67999992E-02   1.01573999E-10
   2.68500000E-02   1.00232760E-10
   2.69000009E-02   9.87965820E-11
   2.69499999E-02   9.72638498E-11
   2.70000007E-02   9.56329460E-11
   2.70499997E-02   9.39023373E-11
   2.71000005E-02   9.20704762E-11
   2.71499995E-02   9.01358155E-11
   2.72000004E-02   8.80968423E-11
   2.72499993E-02   8.59521204E-11
   2.73000002E-02   8.37002065E-11
   2.73499992E-02   8.13396364E-11
   2.74000000E-02   7.88690502E-11
   2.74500009E-02   7.62871225E-11
   2.74999999E-02   7.35925001E-11
   2.75500007E-02   7.07839204E-11
   2.75999997E-02   6.78601550E-11
   2.76500005E-02   6.48199550E-11
   2.76999995E-02   6.16621684E-11
   2.77500004E-02   5.83856713E-11
   2.77999993E-02   5.49893672E-11
   2.78500002E-02   5.14722293E-11
   2.78999992E-02   4.78332478E-11
   2.79500000E-02   4.40714548E-11
   2.80000009E-02   4.01859414E-11
   2.80499998E-02   3.61758713E-11
   2.81000007E-02   3.20404571E-11
   2.81499997E-02   2.77789423E-11
   2.82000005E-02   2.33906609E-11
   2.82499995E-02   1.88749884E-11
   2.83000004E-02   1.42313461E-11
   2.83499993E-02   9.45921553E-12
   2.84000002E-02   4.55817068E-12
   2.84499992E-02  -4.72162457E-13
   2.85000000E-02  -5.63212801E-12
   2.85500009E-02  -1.09219734E-11
   2.85999998E-02  -1.63418602E-11
   2.86500007E-02  -2.18918685E-11
   2.86999997E-02  -2.75720627E-11
   2.87500005E-02  -3.33823975E-11
   2.87999995E-02  -3.93227360E-11
   2.88500004E-02  -4.53928561E-11
   2.88999993E-02  -5.15924907E-11
   2.89500002E-02  -5.79213275E-11
   2.89999992E-02  -6.43789466E-11
   2.90500000E-02  -7.09648451E-11
   2.91000009E-02  -7.76783707E-11
   2.91499998E-02  -8.45188433E-11
   2.92000007E-02  -9.14854720E-11
   2.92499997E-02  -9.85774101E-11
   2.93000005E-02  -1.05793714E-10
   2.93499995E-02  -1.13133301E-10
   2.94000003E-02  -1.20595006E-10
   2.94499993E-02  -1.28177566E-10
   2.95000002E-02  -1.35879710E-10
   2.95499992E-02  -1.43699996E-10
   2.96000000E-02  -1.51636842E-10
   2.96500009E-02  -1.59688610E-10
   2.96999998E-02  -1.67853578E-10
   2.97500007E-02  -1.76129916E-10
   2.97999997E-02  -1.84515681E-10
   2.98500005E-02  -1.93008845E-10
   2.98999995E-02  -2.01607217E-10
   2.99500003E-02  -2.10308548E-10
   2.99999993E-02  -2.19110452E-10
   3.00500002E-02  -2.28010458E-10
   3.00999992E-02  -2.37006026E-10
   3.01500000E-02  -2.46094367E-10
   3.02000009E-02  -2.55272692E-10
   3.02499998E-02  -2.64538114E-10
   3.03000007E-02  -2.73887552E-10
   3.03499997E-02  -2.83317869E-10
   3.04000005E-02  -2.92825819E-10
   3.04499995E-02  -3.02407988E-10
   3.05000003E-02  -3.12060905E-10
   3.05499993E-02  -3.21780935E-10
   3.06000002E-02  -3.31564387E-10
   3.06499992E-02  -3.41407402E-10
   3.07000000E-02  -3.51306068E-10
   3.07500008E-02  -3.61256275E-10
   3.07999998E-02  -3.71253778E-10
   3.08500007E-02  -3.81294329E-10
   3.08999997E-02  -3.91373517E-10
   3.09500005E-02  -4.01486733E-10
   3.09999995E-02  -4.11629369E-10
   3.10500003E-02  -4.21796653E-10
   3.10999993E-02  -4.31983643E-10
   3.11500002E-02  -4.42185344E-10
   3.11999992E-02  -4.52396620E-10
   3.12500000E-02  -4.62612282E-10
   3.13000008E-02  -4.72826944E-10
   3.13500017E-02  -4.83035167E-10
   3.13999988E-02  -4.93231345E-10
   3.14499997E-02  -5.03409758E-10
   3.15000005E-02  -5.13564580E-10
   3.15500014E-02  -5.23690091E-10
   3.15999985E-02  -5.33780076E-10
   3.16499993E-02  -5.43828538E-10
   3.17000002E-02  -5.53829149E-10
   3.17500010E-02  -5.63775582E-10
   3.18000019E-02  -5.73661396E-10
   3.18499990E-02  -5.83479987E-10
   3.18999998E-02  -5.93224858E-10
   3.19500007E-02  -6.02889128E-10
   3.20000015E-02  -6.12466078E-10
   3.20499986E-02  -6.21948604E-10
   3.20999995E-02  -6.31329822E-10
   3.21500003E-02  -6.40602460E-10
   3.22000012E-02  -6.49759302E-10
   3.22499983E-02  -6.58793242E-10
   3.22999991E-02  -6.67696731E-10
   3.23500000E-02  -6.76462331E-10
   3.24000008E-02  -6.85082491E-10
   3.24500017E-02  -6.93549551E-10
   3.24999988E-02  -7.01855851E-10
   3.25499997E-02  -7.09993508E-10
   3.26000005E-02  -7.17954807E-10
   3.26500013E-02  -7.25731808E-10
   3.26999985E-02  -7.33316463E-10
   3.27499993E-02  -7.40700723E-10
   3.28000002E-02  -7.47876594E-10
   3.28500010E-02  -7.54835805E-10
   3.29000019E-02  -7.61570307E-10
   3.29499990E-02  -7.68071662E-10
   3.29999998E-02  -7.74331710E-10
   3.30500007E-02  -7.80342069E-10
   3.31000015E-02  -7.86094356E-10
   3.31499986E-02  -7.91580135E-10
   3.31999995E-02  -7.96790967E-10
   3.32500003E-02  -8.01718358E-10
   3.33000012E-02  -8.06353817E-10
   3.33499983E-02  -8.10688960E-10
   3.33999991E-02  -8.14715129E-10
   3.34500000E-02  -8.18423829E-10
   3.35000008E-02  -8.21806678E-10
   3.35500017E-02  -8.24855018E-10
   3.35999988E-02  -8.27560298E-10
   3.36499996E-02  -8.29914082E-10
   3.37000005E-02  -8.31907765E-10
   3.37500013E-02  -8.33532909E-10
   3.37999985E-02  -8.34781078E-10
   3.38499993E-02  -8.35643776E-10
   3.39000002E-02  -8.36112679E-10
   3.39500010E-02  -8.36179459E-10
   3.40000018E-02  -8.35835567E-10
   3.40499990E-02  -8.35072844E-10
   3.40999998E-02  -8.33883185E-10
   3.41500007E-02  -8.32258262E-10
   3.42000015E-02  -8.30190028E-10
   3.42499986E-02  -8.27670543E-10
   3.42999995E-02  -8.24691759E-10
   3.43500003E-02  -8.21245905E-10
   3.44000012E-02  -8.17325041E-10
   3.44499983E-02  -8.12921674E-10
   3.44999991E-02  -8.08028089E-10
   3.45500000E-02  -8.02636790E-10
   3.46000008E-02  -7.96740340E-10
   3.46500017E-02  -7.90331467E-10
   3.46999988E-02  -7.83403065E-10
   3.47499996E-02  -7.75948139E-10
   3.48000005E-02  -7.67959918E-10
   3.48500013E-02  -7.59431573E-10
   3.48999985E-02  -7.50356388E-10
   3.49499993E-02  -7.40727923E-10
   3.50000001E-02  -7.30539851E-10
   3.50500010E-02  -7.19786120E-10
   3.51000018E-02  -7.08460735E-10
   3.51499990E-02  -6.96557922E-10
   3.51999998E-02  -6.84071966E-10
   3.52500007E-02  -6.70997591E-10
   3.53000015E-02  -6.57329469E-10
   3.53499986E-02  -6.43062492E-10
   3.53999995E-02  -6.28192054E-10
   3.54500003E-02  -6.12713380E-10
   3.55000012E-02  -5.96622085E-10
   3.55499983E-02  -5.79914006E-10
   3.55999991E-02  -5.62585145E-10
   3.56500000E-02  -5.44631784E-10
   3.57000008E-02  -5.26050425E-10
   3.57500017E-02  -5.06837849E-10
   3.57999988E-02  -4.86991059E-10
   3.58499996E-02  -4.66507499E-10
   3.59000005E-02  -4.45384507E-10
   3.59500013E-02  -4.23620000E-10
   3.59999985E-02  -4.01211980E-10
   3.60499993E-02  -3.78158810E-10
   3.61000001E-02  -3.54459212E-10
   3.61500010E-02  -3.30112077E-10
   3.62000018E-02  -3.05116737E-10
   3.62499990E-02  -2.79472723E-10
   3.62999998E-02  -2.53179866E-10
   3.63500006E-02  -2.26238306E-10
   3.64000015E-02  -1.98648611E-10
   3.64499986E-02  -1.70411477E-10
   3.64999995E-02  -1.41528025E-10
   3.65500003E-02  -1.11999875E-10
   3.66000012E-02  -8.18289048E-11
   3.66499983E-02  -5.10173986E-11
   3.66999991E-02  -1.95677259E-11
   3.67500000E-02   1.25172902E-11
   3.68000008E-02   4.52342955E-11
   3.68500017E-02   7.85797816E-11
   3.68999988E-02   1.12549844E-10
   3.69499996E-02   1.47139995E-10
   3.70000005E-02   1.82345541E-10
   3.70500013E-02   2.18161517E-10
   3.70999984E-02   2.54582438E-10
   3.71499993E-02   2.91602437E-10
   3.72000001E-02   3.29215155E-10
   3.72500010E-02   3.67413960E-10
   3.73000018E-02   4.06191858E-10
   3.73499990E-02   4.45541243E-10
   3.73999998E-02   4.85454121E-10
   3.74500006E-02   5.25922639E-10
   3.75000015E-02   5.66938330E-10
   3.75499986E-02   6.08491812E-10
   3.75999995E-02   6.50573484E-10
   3.76500003E-02   6.93173574E-10
   3.77000012E-02   7.36281591E-10
   3.77499983E-02   7.79886988E-10
   3.77999991E-02   8.23978608E-10
   3.78500000E-02   8.68544903E-10
   3.79000008E-02   9.13573994E-10
   3.79500017E-02   9.59053281E-10
   3.79999988E-02   1.00496977E-09
   3.80499996E-02   1.05131037E-09
   3.81000005E-02   1.09806153E-09
   3.81500013E-02   1.14520915E-09
   3.81999984E-02   1.19273835E-09
   3.82499993E-02   1.24063426E-09
   3.83000001E-02   1.28888178E-09
   3.83500010E-02   1.33746492E-09
   3.84000018E-02   1.38636735E-09
   3.84499989E-02   1.43557255E-09
   3.84999998E-02   1.48506329E-09
   3.85500006E-02   1.53482216E-09
   3.86000015E-02   1.58483104E-09
   3.86499986E-02   1.63507163E-09
   3.86999995E-02   1.68552539E-09
   3.87500003E-02   1.73617321E-09
   3.88000011E-02   1.78699566E-09
   3.88499983E-02   1.83797266E-09
   3.88999991E-02   1.88908378E-09
   3.89500000E-02   1.94030836E-09
   3.90000008E-02   1.99162509E-09
   3.90500017E-02   2.04301243E-09
   3.90999988E-02   2.09444839E-09
   3.91499996E-02   2.14591100E-09
   3.92000005E-02   2.19737761E-09
   3.92500013E-02   2.24882468E-09
   3.92999984E-02   2.30022912E-09
   3.93499993E-02   2.35156739E-09
   3.94000001E-02   2.40281484E-09
   3.94500010E-02   2.45394749E-09
   3.95000018E-02   2.50494070E-09
   3.95499989E-02   2.55576893E-09
   3.95999998E-02   2.60640642E-09
   3.96500006E-02   2.65682809E-09
   3.97000015E-02   2.70700728E-09
   3.97499986E-02   2.75691781E-09
   3.97999994E-02   2.80653278E-09
   3.98500003E-02   2.85582580E-09
   3.99000011E-02   2.90476909E-09
   3.99499983E-02   2.95333513E-09
   3.99999991E-02   3.00149616E-09
   4.00500000E-02   3.04922421E-09
   4.01000008E-02   3.09649040E-09
   4.01500016E-02   3.14326676E-09
   4.01999988E-02   3.18952464E-09
   4.02499996E-02   3.23523452E-09
   4.03000005E-02   3.28036731E-09
   4.03500013E-02   3.32489392E-09
   4.03999984E-02   3.36878436E-09
   4.04499993E-02   3.41200956E-09
   4.05000001E-02   3.45453977E-09
   4.05500010E-02   3.49634388E-09
   4.06000018E-02   3.53739171E-09
   4.06499989E-02   3.57765373E-09
   4.06999998E-02   3.61709906E-09
   4.07500006E-02   3.65569708E-09
   4.08000015E-02   3.69341757E-09
   4.08499986E-02   3.73022946E-09
   4.08999994E-02   3.76610210E-09
   4.09500003E-02   3.80100484E-09
   4.10000011E-02   3.83490661E-09
   4.10499983E-02   3.86777677E-09
   4.10999991E-02   3.89958421E-09
   4.11499999E-02   3.93029831E-09
   4.12000008E-02   3.95988797E-09
   4.12500016E-02   3.98832256E-09
   4.12999988E-02   4.01557143E-09
   4.13499996E-02   4.04160350E-09
   4.14000005E-02   4.06638812E-09
   4.14500013E-02   4.08989420E-09
   4.14999984E-02   4.11209200E-09
   4.15499993E-02   4.13295131E-09
   4.16000001E-02   4.15244150E-09
   4.16500010E-02   4.17053281E-09
   4.17000018E-02   4.18719504E-09
   4.17499989E-02   4.20239843E-09
   4.17999998E-02   4.21611412E-09
   4.18500006E-02   4.22831281E-09
   4.19000015E-02   4.23896518E-09
   4.19499986E-02   4.24804236E-09
   4.19999994E-02   4.25551594E-09
   4.20500003E-02   4.26135749E-09
   4.21000011E-02   4.26553992E-09
   4.21499982E-02   4.26803481E-09
   4.21999991E-02   4.26881552E-09
   4.22499999E-02   4.26785451E-09
   4.23000008E-02   4.26512559E-09
   4.23500016E-02   4.26060165E-09
   4.23999988E-02   4.25425872E-09
   4.24499996E-02   4.24607016E-09
   4.25000004E-02   4.23601110E-09
   4.25500013E-02   4.22405710E-09
   4.25999984E-02   4.21018420E-09
   4.26499993E-02   4.19436885E-09
   4.27000001E-02   4.17658796E-09
   4.27500010E-02   4.15681933E-09
   4.28000018E-02   4.13504075E-09