   0.00000000       0.00000000    
   4.99999987E-05   0.00000000    
   9.99999975E-05   0.00000000    
   1.50000007E-04   0.00000000    
   1.99999995E-04  -2.82630009E-24
   2.50000012E-04  -3.08563669E-23
   3.00000014E-04  -1.80838537E-22
   3.49999988E-04  -7.58543958E-22
   3.99999990E-04  -2.55667775E-21
   4.49999992E-04  -7.36511924E-21
   5.00000024E-04  -1.88319250E-20
   5.49999997E-04  -4.38265039E-20
   6.00000028E-04  -9.44927511E-20
   6.50000002E-04  -1.91219497E-19
   6.99999975E-04  -3.66798379E-19
   7.50000007E-04  -6.72084558E-19
   7.99999980E-04  -1.18352495E-18
   8.50000011E-04  -2.01296780E-18
   8.99999985E-04  -3.32022109E-18
   9.50000016E-04  -5.32888486E-18
   1.00000005E-03  -8.34603814E-18
   1.04999996E-03  -1.27864189E-17
   1.09999999E-03  -1.92017952E-17
   1.15000003E-03  -2.83162916E-17
   1.20000006E-03  -4.10685215E-17
   1.24999997E-03  -5.86613396E-17
   1.30000000E-03  -8.26202819E-17
   1.35000004E-03  -1.14861625E-16
   1.39999995E-03  -1.57771163E-16
   1.44999998E-03  -2.14294902E-16
   1.50000001E-03  -2.88042845E-16
   1.55000004E-03  -3.83407187E-16
   1.59999996E-03  -5.05696193E-16
   1.64999999E-03  -6.61285292E-16
   1.70000002E-03  -8.57786613E-16
   1.75000005E-03  -1.10423916E-15
   1.79999997E-03  -1.41132016E-15
   1.85000000E-03  -1.79157972E-15
   1.90000003E-03  -2.25970137E-15
   1.94999995E-03  -2.83278925E-15
   2.00000009E-03  -3.53068383E-15
   2.05000001E-03  -4.37630668E-15
   2.09999993E-03  -5.39604075E-15
   2.15000007E-03  -6.62014312E-15
   2.19999999E-03  -8.08319391E-15
   2.24999990E-03  -9.82458523E-15
   2.30000005E-03  -1.18890476E-14
   2.34999997E-03  -1.43272218E-14
   2.40000011E-03  -1.71962782E-14
   2.45000003E-03  -2.05605728E-14
   2.49999994E-03  -2.44923592E-14
   2.55000009E-03  -2.90725594E-14
   2.60000001E-03  -3.43915638E-14
   2.64999992E-03  -4.05501167E-14
   2.70000007E-03  -4.76602366E-14
   2.74999999E-03  -5.58462070E-14
   2.79999990E-03  -6.52456333E-14
   2.85000005E-03  -7.60105276E-14
   2.89999996E-03  -8.83085177E-14
   2.95000011E-03  -1.02324094E-13
   3.00000003E-03  -1.18259894E-13
   3.04999994E-03  -1.36338111E-13
   3.10000009E-03  -1.56801994E-13
   3.15000000E-03  -1.79917293E-13
   3.19999992E-03  -2.05974005E-13
   3.25000007E-03  -2.35287891E-13
   3.29999998E-03  -2.68202371E-13
   3.34999990E-03  -3.05090398E-13
   3.40000005E-03  -3.46356326E-13
   3.44999996E-03  -3.92437954E-13
   3.50000011E-03  -4.43808591E-13
   3.55000002E-03  -5.00979358E-13
   3.59999994E-03  -5.64501299E-13
   3.65000009E-03  -6.34967990E-13
   3.70000000E-03  -7.13017752E-13
   3.74999992E-03  -7.99336237E-13
   3.80000006E-03  -8.94659292E-13
   3.84999998E-03  -9.99775349E-13
   3.89999989E-03  -1.11552846E-12
   3.94999981E-03  -1.24282106E-12
   4.00000019E-03  -1.38261711E-12
   4.05000011E-03  -1.53594542E-12
   4.10000002E-03  -1.70390167E-12
   4.14999994E-03  -1.88765301E-12
   4.19999985E-03  -2.08844097E-12
   4.25000023E-03  -2.30758446E-12
   4.30000015E-03  -2.54648364E-12
   4.35000006E-03  -2.80662342E-12
   4.39999998E-03  -3.08957721E-12
   4.44999989E-03  -3.39701032E-12
   4.49999981E-03  -3.73068460E-12
   4.55000019E-03  -4.09246031E-12
   4.60000010E-03  -4.48430312E-12
   4.65000002E-03  -4.90828558E-12
   4.69999993E-03  -5.36659172E-12
   4.74999985E-03  -5.86152221E-12
   4.80000023E-03  -6.39549698E-12
   4.85000014E-03  -6.97106045E-12
   4.90000006E-03  -7.59088625E-12
   4.94999997E-03  -8.25777988E-12
   4.99999989E-03  -8.97468298E-12
   5.04999980E-03  -9.74468076E-12
   5.10000018E-03  -1.05710033E-11
   5.15000010E-03  -1.14570289E-11
   5.20000001E-03  -1.24062947E-11
   5.24999993E-03  -1.34224923E-11
   5.29999984E-03  -1.45094778E-11
   5.35000023E-03  -1.56712750E-11
   5.40000014E-03  -1.69120776E-11
   5.45000006E-03  -1.82362597E-11
   5.49999997E-03  -1.96483715E-11
   5.54999989E-03  -2.11531504E-11
   5.59999980E-03  -2.27555197E-11
   5.65000018E-03  -2.44605950E-11
   5.70000010E-03  -2.62736950E-11
   5.75000001E-03  -2.82003310E-11
   5.79999993E-03  -3.02462187E-11
   5.84999984E-03  -3.24172876E-11
   5.90000022E-03  -3.47196716E-11
   5.95000014E-03  -3.71597232E-11
   6.00000005E-03  -3.97440171E-11
   6.04999997E-03  -4.24793360E-11
   6.09999988E-03  -4.53727021E-11
   6.14999980E-03  -4.84313561E-11
   6.20000018E-03  -5.16627609E-11
   6.25000009E-03  -5.50746254E-11
   6.30000001E-03  -5.86748844E-11
   6.34999992E-03  -6.24717153E-11
   6.39999984E-03  -6.64735281E-11
   6.45000022E-03  -7.06889686E-11
   6.50000013E-03  -7.51269186E-11
   6.55000005E-03  -7.97965097E-11
   6.59999996E-03  -8.47071094E-11
   6.64999988E-03  -8.98683350E-11
   6.69999979E-03  -9.52900328E-11
   6.75000018E-03  -1.00982313E-10
   6.80000009E-03  -1.06955486E-10
   6.85000001E-03  -1.13220135E-10
   6.89999992E-03  -1.19787069E-10
   6.94999984E-03  -1.26667329E-10
   7.00000022E-03  -1.33872205E-10
   7.05000013E-03  -1.41413201E-10
   7.10000005E-03  -1.49302043E-10
   7.14999996E-03  -1.57550695E-10
   7.19999988E-03  -1.66171327E-10
   7.24999979E-03  -1.75176360E-10
   7.30000017E-03  -1.84578366E-10
   7.35000009E-03  -1.94390157E-10
   7.40000000E-03  -2.04624748E-10
   7.44999992E-03  -2.15295323E-10
   7.49999983E-03  -2.26415275E-10
   7.55000021E-03  -2.37998121E-10
   7.60000013E-03  -2.50057614E-10
   7.65000004E-03  -2.62607602E-10
   7.69999996E-03  -2.75662132E-10
   7.74999987E-03  -2.89235358E-10
   7.79999979E-03  -3.03341574E-10
   7.84999970E-03  -3.17995158E-10
   7.89999962E-03  -3.33210681E-10
   7.95000046E-03  -3.49002743E-10
   8.00000038E-03  -3.65385971E-10
   8.05000030E-03  -3.82375159E-10
   8.10000021E-03  -3.99985017E-10
   8.15000013E-03  -4.18230450E-10
   8.20000004E-03  -4.37126280E-10
   8.24999996E-03  -4.56687271E-10
   8.29999987E-03  -4.76928275E-10
   8.34999979E-03  -4.97864139E-10
   8.39999970E-03  -5.19509546E-10
   8.44999962E-03  -5.41879042E-10
   8.50000046E-03  -5.64987279E-10
   8.55000038E-03  -5.88848692E-10
   8.60000029E-03  -6.13477491E-10
   8.65000021E-03  -6.38887832E-10
   8.70000012E-03  -6.65093647E-10
   8.75000004E-03  -6.92108704E-10
   8.79999995E-03  -7.19946380E-10
   8.84999987E-03  -7.48619888E-10
   8.89999978E-03  -7.78142273E-10
   8.94999970E-03  -8.08526024E-10
   8.99999961E-03  -8.39783465E-10
   9.05000046E-03  -8.71926475E-10
   9.10000037E-03  -9.04966435E-10
   9.15000029E-03  -9.38914280E-10
   9.20000020E-03  -9.73780723E-10
   9.25000012E-03  -1.00957587E-09
   9.30000003E-03  -1.04630926E-09
   9.34999995E-03  -1.08398956E-09
   9.39999986E-03  -1.12262533E-09
   9.44999978E-03  -1.16222432E-09
   9.49999969E-03  -1.20279342E-09
   9.54999961E-03  -1.24433885E-09
   9.60000046E-03  -1.28686650E-09
   9.65000037E-03  -1.33038092E-09
   9.70000029E-03  -1.37488609E-09
   9.75000020E-03  -1.42038503E-09
   9.80000012E-03  -1.46687995E-09
   9.85000003E-03  -1.51437218E-09
   9.89999995E-03  -1.56286195E-09
   9.94999986E-03  -1.61234825E-09
   9.99999978E-03  -1.66282965E-09
   1.00499997E-02  -1.71430292E-09
   1.00999996E-02  -1.76676407E-09
   1.01500005E-02  -1.82020754E-09
   1.02000004E-02  -1.87462690E-09
   1.02500003E-02  -1.93001415E-09
   1.03000002E-02  -1.98636041E-09
   1.03500001E-02  -2.04365502E-09
   1.04000000E-02  -2.10188600E-09
   1.04499999E-02  -2.16104001E-09
   1.04999999E-02  -2.22110175E-09
   1.05499998E-02  -2.28205499E-09
   1.05999997E-02  -2.34388153E-09
   1.06499996E-02  -2.40656162E-09
   1.07000005E-02  -2.47007370E-09
   1.07500004E-02  -2.53439492E-09
   1.08000003E-02  -2.59949995E-09
   1.08500002E-02  -2.66536215E-09
   1.09000001E-02  -2.73195266E-09
   1.09500000E-02  -2.79924106E-09
   1.09999999E-02  -2.86719470E-09
   1.10499999E-02  -2.93577851E-09
   1.10999998E-02  -3.00495651E-09
   1.11499997E-02  -3.07468984E-09
   1.11999996E-02  -3.14493720E-09
   1.12500004E-02  -3.21565619E-09
   1.13000004E-02  -3.28680083E-09
   1.13500003E-02  -3.35832362E-09
   1.14000002E-02  -3.43017459E-09
   1.14500001E-02  -3.50230156E-09
   1.15000000E-02  -3.57464991E-09
   1.15499999E-02  -3.64716235E-09
   1.15999999E-02  -3.71977915E-09
   1.16499998E-02  -3.79243881E-09
   1.16999997E-02  -3.86507626E-09
   1.17499996E-02  -3.93762400E-09
   1.18000004E-02  -4.01001232E-09
   1.18500004E-02  -4.08216927E-09
   1.19000003E-02  -4.15401935E-09
   1.19500002E-02  -4.22548441E-09
   1.20000001E-02  -4.29648406E-09
   1.20500000E-02  -4.36693526E-09
   1.20999999E-02  -4.43675097E-09
   1.21499998E-02  -4.50584237E-09
   1.21999998E-02  -4.57411753E-09
   1.22499997E-02  -4.64148275E-09
   1.22999996E-02  -4.70783945E-09
   1.23500004E-02  -4.77308770E-09
   1.24000004E-02  -4.83712359E-09
   1.24500003E-02  -4.89984098E-09
   1.25000002E-02  -4.96113062E-09
   1.25500001E-02  -5.02088016E-09
   1.26000000E-02  -5.07897502E-09
   1.26499999E-02  -5.13529663E-09
   1.26999998E-02  -5.18972376E-09
   1.27499998E-02  -5.24213251E-09
   1.27999997E-02  -5.29239585E-09
   1.28499996E-02  -5.34038413E-09
   1.29000004E-02  -5.38596412E-09
   1.29500004E-02  -5.42899992E-09
   1.30000003E-02  -5.46935341E-09
   1.30500002E-02  -5.50688206E-09
   1.31000001E-02  -5.54144242E-09
   1.31500000E-02  -5.57288660E-09
   1.31999999E-02  -5.60106495E-09
   1.32499998E-02  -5.62582381E-09
   1.32999998E-02  -5.64700864E-09
   1.33499997E-02  -5.66446001E-09
   1.33999996E-02  -5.67801717E-09
   1.34500004E-02  -5.68751579E-09
   1.35000004E-02  -5.69278980E-09
   1.35500003E-02  -5.69367087E-09
   1.36000002E-02  -5.68998626E-09
   1.36500001E-02  -5.68156322E-09
   1.37000000E-02  -5.66822456E-09
   1.37499999E-02  -5.64979219E-09
   1.37999998E-02  -5.62608538E-09
   1.38499998E-02  -5.59692070E-09
   1.38999997E-02  -5.56211388E-09
   1.39499996E-02  -5.52147661E-09
   1.40000004E-02  -5.47482060E-09
   1.40500003E-02  -5.42195444E-09
   1.41000003E-02  -5.36268585E-09
   1.41500002E-02  -5.29681987E-09
   1.42000001E-02  -5.22416022E-09
   1.42500000E-02  -5.14451015E-09
   1.42999999E-02  -5.05767117E-09
   1.43499998E-02  -4.96344210E-09
   1.43999998E-02  -4.86162177E-09
   1.44499997E-02  -4.75200901E-09
   1.44999996E-02  -4.63439997E-09
   1.45500004E-02  -4.50859083E-09
   1.46000003E-02  -4.37437642E-09
   1.46500003E-02  -4.23155155E-09
   1.47000002E-02  -4.07991196E-09
   1.47500001E-02  -3.91925159E-09
   1.48000000E-02  -3.74936437E-09
   1.48499999E-02  -3.57004470E-09
   1.48999998E-02  -3.38108763E-09
   1.49499997E-02  -3.18228754E-09
   1.49999997E-02  -2.97344038E-09
   1.50499996E-02  -2.75434209E-09
   1.51000004E-02  -2.52479038E-09
   1.51500003E-02  -2.28458319E-09
   1.52000003E-02  -2.03352002E-09
   1.52500002E-02  -1.77140225E-09
   1.53000001E-02  -1.49803236E-09
   1.53500000E-02  -1.21321475E-09
   1.53999999E-02  -9.16756115E-10
   1.54499998E-02  -6.08465389E-10
   1.54999997E-02  -2.88153584E-10
   1.55499997E-02   4.43654766E-11
   1.55999996E-02   3.89275140E-10
   1.56500004E-02   7.46755324E-10
   1.56999994E-02   1.11698306E-09
   1.57500003E-02   1.50013146E-09
   1.57999992E-02   1.89637062E-09
   1.58500001E-02   2.30586594E-09
   1.59000009E-02   2.72877920E-09
   1.59499999E-02   3.16526694E-09
   1.60000008E-02   3.61548147E-09
   1.60499997E-02   4.07957002E-09
   1.61000006E-02   4.55767513E-09
   1.61499996E-02   5.04993380E-09
   1.62000004E-02   5.55647706E-09
   1.62499994E-02   6.07742923E-09
   1.63000003E-02   6.61290978E-09
   1.63499992E-02   7.16303283E-09
   1.64000001E-02   7.72790365E-09
   1.64500009E-02   8.30761948E-09
   1.64999999E-02   8.90227447E-09
   1.65500008E-02   9.51195123E-09
   1.65999997E-02   1.01367270E-08
   1.66500006E-02   1.07766693E-08
   1.66999996E-02   1.14318404E-08
   1.67500004E-02   1.21022907E-08
   1.67999994E-02   1.27880631E-08
   1.68500002E-02   1.34891929E-08
   1.68999992E-02   1.42057051E-08
   1.69500001E-02   1.49376120E-08
   1.70000009E-02   1.56849183E-08
   1.70499999E-02   1.64476219E-08
   1.71000008E-02   1.72257071E-08
   1.71499997E-02   1.80191453E-08
   1.72000006E-02   1.88279010E-08
   1.72499996E-02   1.96519281E-08
   1.73000004E-02   2.04911625E-08
   1.73499994E-02   2.13455333E-08
   1.74000002E-02   2.22149588E-08
   1.74499992E-02   2.30993411E-08
   1.75000001E-02   2.39985720E-08
   1.75500009E-02   2.49125307E-08
   1.75999999E-02   2.58410822E-08
   1.76500008E-02   2.67840807E-08
   1.76999997E-02   2.77413648E-08
   1.77500006E-02   2.87127566E-08
   1.77999996E-02   2.96980698E-08
   1.78500004E-02   3.06971017E-08
   1.78999994E-02   3.17096323E-08
   1.79500002E-02   3.27354286E-08
   1.79999992E-02   3.37742421E-08
   1.80500001E-02   3.48258133E-08
   1.81000009E-02   3.58898617E-08
   1.81499999E-02   3.69660960E-08
   1.82000007E-02   3.80542033E-08
   1.82499997E-02   3.91538570E-08
   1.83000006E-02   4.02647231E-08
   1.83499996E-02   4.13864356E-08
   1.84000004E-02   4.25186251E-08
   1.84499994E-02   4.36608936E-08
   1.85000002E-02   4.48128361E-08
   1.85499992E-02   4.59740264E-08
   1.86000001E-02   4.71440202E-08
   1.86500009E-02   4.83223594E-08
   1.86999999E-02   4.95085679E-08
   1.87500007E-02   5.07021447E-08
   1.87999997E-02   5.19025818E-08
   1.88500006E-02   5.31093463E-08
   1.88999996E-02   5.43218874E-08
   1.89500004E-02   5.55396369E-08
   1.89999994E-02   5.67620120E-08
   1.90500002E-02   5.79884087E-08
   1.90999992E-02   5.92181983E-08
   1.91500001E-02   6.04507449E-08
   1.92000009E-02   6.16853910E-08
   1.92499999E-02   6.29214654E-08
   1.93000007E-02   6.41582574E-08
   1.93499997E-02   6.53950636E-08
   1.94000006E-02   6.66311450E-08
   1.94499996E-02   6.78657557E-08
   1.95000004E-02   6.90981210E-08
   1.95499994E-02   7.03274594E-08
   1.96000002E-02   7.15529609E-08
   1.96499992E-02   7.27738012E-08
   1.97000001E-02   7.39891277E-08
   1.97500009E-02   7.51980949E-08
   1.97999999E-02   7.63998145E-08
   1.98500007E-02   7.75933913E-08
   1.98999997E-02   7.87779086E-08
   1.99500006E-02   7.99524429E-08
   1.99999996E-02   8.11160277E-08
   2.00500004E-02   8.22677180E-08
   2.00999994E-02   8.34065119E-08
   2.01500002E-02   8.45314148E-08
   2.01999992E-02   8.56414033E-08
   2.02500001E-02   8.67354473E-08
   2.03000009E-02   8.78125022E-08
   2.03499999E-02   8.88714951E-08
   2.04000007E-02   8.99113388E-08
   2.04499997E-02   9.09309392E-08
   2.05000006E-02   9.19291807E-08
   2.05499995E-02   9.29049477E-08
   2.06000004E-02   9.38570963E-08
   2.06499994E-02   9.47844541E-08
   2.07000002E-02   9.56858699E-08
   2.07499992E-02   9.65601430E-08
   2.08000001E-02   9.74060939E-08
   2.08500009E-02   9.82225004E-08
   2.08999999E-02   9.90081546E-08
   2.09500007E-02   9.97618130E-08
   2.09999997E-02   1.00482239E-07
   2.10500006E-02   1.01168176E-07
   2.10999995E-02   1.01818351E-07
   2.11500004E-02   1.02431514E-07
   2.11999994E-02   1.03006371E-07
   2.12500002E-02   1.03541623E-07
   2.12999992E-02   1.04035976E-07
   2.13500001E-02   1.04488123E-07
   2.14000009E-02   1.04896756E-07
   2.14499999E-02   1.05260554E-07
   2.15000007E-02   1.05578181E-07
   2.15499997E-02   1.05848308E-07
   2.16000006E-02   1.06069606E-07
   2.16499995E-02   1.06240741E-07
   2.17000004E-02   1.06360375E-07
   2.17499994E-02   1.06427152E-07
   2.18000002E-02   1.06439735E-07
   2.18499992E-02   1.06396783E-07
   2.19000001E-02   1.06296952E-07
   2.19500009E-02   1.06138891E-07
   2.19999999E-02   1.05921259E-07
   2.20500007E-02   1.05642712E-07
   2.20999997E-02   1.05301922E-07
   2.21500006E-02   1.04897552E-07
   2.21999995E-02   1.04428281E-07
   2.22500004E-02   1.03892773E-07
   2.22999994E-02   1.03289722E-07
   2.23500002E-02   1.02617804E-07
   2.23999992E-02   1.01875742E-07
   2.24500000E-02   1.01062234E-07
   2.25000009E-02   1.00176010E-07
   2.25499999E-02   9.92157894E-08
   2.26000007E-02   9.81803225E-08
   2.26499997E-02   9.70683587E-08
   2.27000006E-02   9.58786757E-08
   2.27499995E-02   9.46100513E-08
   2.28000004E-02   9.32612991E-08
   2.28499994E-02   9.18312182E-08
   2.29000002E-02   9.03186574E-08
   2.29499992E-02   8.87224729E-08
   2.30000000E-02   8.70415349E-08
   2.30500009E-02   8.52747348E-08
   2.30999999E-02   8.34209928E-08
   2.31500007E-02   8.14792642E-08
   2.31999997E-02   7.94484976E-08
   2.32500006E-02   7.73276909E-08
   2.32999995E-02   7.51158566E-08
   2.33500004E-02   7.28120497E-08
   2.33999994E-02   7.04153322E-08
   2.34500002E-02   6.79248018E-08
   2.34999992E-02   6.53396057E-08
   2.35500000E-02   6.26588985E-08
   2.36000009E-02   5.98818701E-08
   2.36499999E-02   5.70077603E-08
   2.37000007E-02   5.40358300E-08
   2.37499997E-02   5.09653830E-08
   2.38000005E-02   4.77957514E-08
   2.38499995E-02   4.45263133E-08
   2.39000004E-02   4.11564862E-08
   2.39499994E-02   3.76857194E-08
   2.40000002E-02   3.41135156E-08
   2.40499992E-02   3.04394092E-08
   2.41000000E-02   2.66629812E-08
   2.41500009E-02   2.27838584E-08
   2.41999999E-02   1.88017086E-08
   2.42500007E-02   1.47162531E-08
   2.42999997E-02   1.05272537E-08
   2.43500005E-02   6.23452845E-09
   2.43999995E-02   1.83794069E-09
   2.44500004E-02  -2.66259770E-09
   2.44999994E-02  -7.26712290E-09
   2.45500002E-02  -1.19756143E-08
   2.45999992E-02  -1.67880057E-08
   2.46500000E-02  -2.17041691E-08
   2.47000009E-02  -2.67239262E-08
   2.47499999E-02  -3.18470370E-08
   2.48000007E-02  -3.70732032E-08
   2.48499997E-02  -4.24020712E-08
   2.49000005E-02  -4.78332396E-08
   2.49499995E-02  -5.33662288E-08
   2.50000004E-02  -5.90005058E-08
   2.50499994E-02  -6.47354810E-08
   2.51000002E-02  -7.05705006E-08
   2.51499992E-02  -7.65048398E-08
   2.52000000E-02  -8.25377242E-08
   2.52500009E-02  -8.86682940E-08
   2.52999999E-02  -9.48956469E-08
   2.53500007E-02  -1.01218802E-07
   2.53999997E-02  -1.07636716E-07
   2.54500005E-02  -1.14148257E-07
   2.54999995E-02  -1.20752262E-07
   2.55500004E-02  -1.27447464E-07
   2.55999994E-02  -1.34232565E-07
   2.56500002E-02  -1.41106156E-07
   2.56999992E-02  -1.48066775E-07
   2.57500000E-02  -1.55112915E-07
   2.58000009E-02  -1.62242941E-07
   2.58499999E-02  -1.69455191E-07
   2.59000007E-02  -1.76747932E-07
   2.59499997E-02  -1.84119344E-07
   2.60000005E-02  -1.91567523E-07
   2.60499995E-02  -1.99090522E-07
   2.61000004E-02  -2.06686295E-07
   2.61499994E-02  -2.14352752E-07
   2.62000002E-02  -2.22087678E-07
   2.62499992E-02  -2.29888798E-07
   2.63000000E-02  -2.37753781E-07
   2.63500009E-02  -2.45680269E-07
   2.63999999E-02  -2.53665718E-07
   2.64500007E-02  -2.61707612E-07
   2.64999997E-02  -2.69803309E-07
   2.65500005E-02  -2.77950107E-07
   2.65999995E-02  -2.86145251E-07
   2.66500004E-02  -2.94385814E-07
   2.66999993E-02  -3.02668951E-07
   2.67500002E-02  -3.10991624E-07
   2.67999992E-02  -3.19350733E-07
   2.68500000E-02  -3.27743152E-07
   2.69000009E-02  -3.36165670E-07
   2.69499999E-02  -3.44615017E-07
   2.70000007E-02  -3.53087756E-07
   2.70499997E-02  -3.61580504E-07
   2.71000005E-02  -3.70089765E-07
   2.71499995E-02  -3.78611929E-07
   2.72000004E-02  -3.87143331E-07
   2.72499993E-02  -3.95680274E-07
   2.73000002E-02  -4.04218980E-07
   2.73499992E-02  -4.12755611E-07
   2.74000000E-02  -4.21286160E-07
   2.74500009E-02  -4.29806732E-07
   2.74999999E-02  -4.38313265E-07
   2.75500007E-02  -4.46801607E-07
   2.75999997E-02  -4.55267582E-07
   2.76500005E-02  -4.63707039E-07
   2.76999995E-02  -4.72115573E-07
   2.77500004E-02  -4.80488836E-07
   2.77999993E-02  -4.88822423E-07
   2.78500002E-02  -4.97111841E-07
   2.78999992E-02  -5.05352602E-07
   2.79500000E-02  -5.13540101E-07
   2.80000009E-02  -5.21669620E-07
   2.80499998E-02  -5.29736496E-07
   2.81000007E-02  -5.37736071E-07
   2.81499997E-02  -5.45663397E-07
   2.82000005E-02  -5.53513757E-07
   2.82499995E-02  -5.61282150E-07
   2.83000004E-02  -5.68963628E-07
   2.83499993E-02  -5.76553305E-07
   2.84000002E-02  -5.84046120E-07
   2.84499992E-02  -5.91437015E-07
   2.85000000E-02  -5.98720817E-07
   2.85500009E-02  -6.05892467E-07
   2.85999998E-02  -6.12946735E-07
   2.86500007E-02  -6.19878506E-07
   2.86999997E-02  -6.26682493E-07
   2.87500005E-02  -6.33353466E-07
   2.87999995E-02  -6.39886025E-07
   2.88500004E-02  -6.46274998E-07
   2.88999993E-02  -6.52514927E-07
   2.89500002E-02  -6.58600470E-07
   2.89999992E-02  -6.64526340E-07
   2.90500000E-02  -6.70287136E-07
   2.91000009E-02  -6.75877345E-07
   2.91499998E-02  -6.81291681E-07
   2.92000007E-02  -6.86524629E-07
   2.92499997E-02  -6.91570847E-07
   2.93000005E-02  -6.96424763E-07
   2.93499995E-02  -7.01081092E-07
   2.94000003E-02  -7.05534319E-07
   2.94499993E-02  -7.09779044E-07
   2.95000002E-02  -7.13809811E-07
   2.95499992E-02  -7.17621219E-07
   2.96000000E-02  -7.21207869E-07
   2.96500009E-02  -7.24564416E-07
   2.96999998E-02  -7.27685460E-07
   2.97500007E-02  -7.30565716E-07
   2.97999997E-02  -7.33199727E-07
   2.98500005E-02  -7.35582205E-07
   2.98999995E-02  -7.37707978E-07
   2.99500003E-02  -7.39571703E-07
   2.99999993E-02  -7.41168208E-07
   3.00500002E-02  -7.42492261E-07
   3.00999992E-02  -7.43538806E-07
   3.01500000E-02  -7.44302724E-07
   3.02000009E-02  -7.44778959E-07
   3.02499998E-02  -7.44962449E-07
   3.03000007E-02  -7.44848364E-07
   3.03499997E-02  -7.44431759E-07
   3.04000005E-02  -7.43707687E-07
   3.04499995E-02  -7.42671489E-07
   3.05000003E-02  -7.41318445E-07
   3.05499993E-02  -7.39643895E-07
   3.06000002E-02  -7.37643177E-07
   3.06499992E-02  -7.35311858E-07
   3.07000000E-02  -7.32645447E-07
   3.07500008E-02  -7.29639623E-07
   3.07999998E-02  -7.26290125E-07
   3.08500007E-02  -7.22592688E-07
   3.08999997E-02  -7.18543163E-07
   3.09500005E-02  -7.14137684E-07
   3.09999995E-02  -7.09372216E-07
   3.10500003E-02  -7.04242950E-07
   3.10999993E-02  -6.98746078E-07
   3.11500002E-02  -6.92878075E-07
   3.11999992E-02  -6.86635360E-07
   3.12500000E-02  -6.80014580E-07
   3.13000008E-02  -6.73012323E-07
   3.13500017E-02  -6.65625407E-07
   3.13999988E-02  -6.57850762E-07
   3.14499997E-02  -6.49685489E-07
   3.15000005E-02  -6.41126690E-07
   3.15500014E-02  -6.32171634E-07
   3.15999985E-02  -6.22817709E-07
   3.16499993E-02  -6.13062468E-07
   3.17000002E-02  -6.02903640E-07
   3.17500010E-02  -5.92338949E-07
   3.18000019E-02  -5.81366407E-07
   3.18499990E-02  -5.69984081E-07
   3.18999998E-02  -5.58190209E-07
   3.19500007E-02  -5.45983085E-07
   3.20000015E-02  -5.33361344E-07
   3.20499986E-02  -5.20323567E-07
   3.20999995E-02  -5.06868616E-07
   3.21500003E-02  -4.92995412E-07
   3.22000012E-02  -4.78703214E-07
   3.22499983E-02  -4.63991228E-07
   3.22999991E-02  -4.48858998E-07
   3.23500000E-02  -4.33306070E-07
   3.24000008E-02  -4.17332245E-07
   3.24500017E-02  -4.00937466E-07
   3.24999988E-02  -3.84121904E-07
   3.25499997E-02  -3.66885871E-07
   3.26000005E-02  -3.49229850E-07
   3.26500013E-02  -3.31154496E-07
   3.26999985E-02  -3.12660632E-07
   3.27499993E-02  -2.93749281E-07
   3.28000002E-02  -2.74421637E-07
   3.28500010E-02  -2.54679122E-07
   3.29000019E-02  -2.34523228E-07
   3.29499990E-02  -2.13955786E-07
   3.29999998E-02  -1.92978717E-07
   3.30500007E-02  -1.71594166E-07
   3.31000015E-02  -1.49804436E-07
   3.31499986E-02  -1.27612068E-07
   3.31999995E-02  -1.05019758E-07
   3.32500003E-02  -8.20304251E-08
   3.33000012E-02  -5.86471742E-08
   3.33499983E-02  -3.48733025E-08
   3.33999991E-02  -1.07123155E-08
   3.34500000E-02   1.38320901E-08
   3.35000008E-02   3.87560277E-08
   3.35500017E-02   6.40553921E-08
   3.35999988E-02   8.97258872E-08
   3.36499996E-02   1.15763029E-07
   3.37000005E-02   1.42162108E-07
   3.37500013E-02   1.68918234E-07
   3.37999985E-02   1.96026292E-07
   3.38499993E-02   2.23480967E-07
   3.39000002E-02   2.51276731E-07
   3.39500010E-02   2.79407914E-07
   3.40000018E-02   3.07868618E-07
   3.40499990E-02   3.36652732E-07
   3.40999998E-02   3.65753920E-07
   3.41500007E-02   3.95165642E-07
   3.42000015E-02   4.24881222E-07
   3.42499986E-02   4.54893666E-07
   3.42999995E-02   4.85195926E-07
   3.43500003E-02   5.15780698E-07
   3.44000012E-02   5.46640365E-07
   3.44499983E-02   5.77767366E-07
   3.44999991E-02   6.09153687E-07
   3.45500000E-02   6.40791257E-07
   3.46000008E-02   6.72671831E-07
   3.46500017E-02   7.04786771E-07
   3.46999988E-02   7.37127493E-07
   3.47499996E-02   7.69685073E-07
   3.48000005E-02   8.02450472E-07
   3.48500013E-02   8.35414539E-07
   3.48999985E-02   8.68567781E-07
   3.49499993E-02   9.01900592E-07
   3.50000001E-02   9.35403193E-07
   3.50500010E-02   9.69065582E-07
   3.51000018E-02   1.00287753E-06
   3.51499990E-02   1.03682873E-06
   3.51999998E-02   1.07090887E-06
   3.52500007E-02   1.10510700E-06
   3.53000015E-02   1.13941246E-06
   3.53499986E-02   1.17381421E-06
   3.53999995E-02   1.20830100E-06
   3.54500003E-02   1.24286169E-06
   3.55000012E-02   1.27748456E-06
   3.55499983E-02   1.31215813E-06
   3.55999991E-02   1.34687048E-06
   3.56500000E-02   1.38160988E-06
   3.57000008E-02   1.41636406E-06
   3.57500017E-02   1.45112085E-06
   3.57999988E-02   1.48586787E-06
   3.58499996E-02   1.52059272E-06
   3.59000005E-02   1.55528255E-06
   3.59500013E-02   1.58992464E-06
   3.59999985E-02   1.62450613E-06
   3.60499993E-02   1.65901406E-06
   3.61000001E-02   1.69343525E-06
   3.61500010E-02   1.72775651E-06
   3.62000018E-02   1.76196465E-06
   3.62499990E-02   1.79604604E-06
   3.62999998E-02   1.82998690E-06
   3.63500006E-02   1.86377395E-06
   3.64000015E-02   1.89739330E-06
   3.64499986E-02   1.93083110E-06
   3.64999995E-02   1.96407336E-06
   3.65500003E-02   1.99710621E-06
   3.66000012E-02   2.02991555E-06
   3.66499983E-02   2.06248683E-06
   3.66999991E-02   2.09480640E-06
   3.67500000E-02   2.12685973E-06
   3.68000008E-02   2.15863270E-06
   3.68500017E-02   2.19011076E-06
   3.68999988E-02   2.22127937E-06
   3.69499996E-02   2.25212420E-06
   3.70000005E-02   2.28263048E-06
   3.70500013E-02   2.31278364E-06
   3.70999984E-02   2.34256936E-06
   3.71499993E-02   2.37197310E-06
   3.72000001E-02   2.40098007E-06
   3.72500010E-02   2.42957549E-06
   3.73000018E-02   2.45774481E-06
   3.73499990E-02   2.48547371E-06
   3.73999998E-02   2.51274719E-06
   3.74500006E-02   2.53955091E-06
   3.75000015E-02   2.56586964E-06
   3.75499986E-02   2.59168928E-06
   3.75999995E-02   2.61699529E-06
   3.76500003E-02   2.64177288E-06
   3.77000012E-02   2.66600750E-06
   3.77499983E-02   2.68968461E-06
   3.77999991E-02   2.71279009E-06
   3.78500000E-02   2.73530918E-06
   3.79000008E-02   2.75722800E-06
   3.79500017E-02   2.77853178E-06
   3.79999988E-02   2.79920687E-06
   3.80499996E-02   2.81923894E-06
   3.81000005E-02   2.83861345E-06
   3.81500013E-02   2.85731699E-06
   3.81999984E-02   2.87533544E-06
   3.82499993E-02   2.89265517E-06
   3.83000001E-02   2.90926232E-06
   3.83500010E-02   2.92514346E-06
   3.84000018E-02   2.94028473E-06
   3.84499989E-02   2.95467316E-06
   3.84999998E-02   2.96829535E-06
   3.85500006E-02   2.98113832E-06
   3.86000015E-02   2.99318890E-06
   3.86499986E-02   3.00443435E-06
   3.86999995E-02   3.01486193E-06
   3.87500003E-02   3.02445915E-06
   3.88000011E-02   3.03321349E-06
   3.88499983E-02   3.04111313E-06
   3.88999991E-02   3.04814535E-06
   3.89500000E-02   3.05429853E-06
   3.90000008E-02   3.05956087E-06
   3.90500017E-02   3.06392099E-06
   3.90999988E-02   3.06736729E-06
   3.91499996E-02   3.06988863E-06
   3.92000005E-02   3.07147434E-06
   3.92500013E-02   3.07211303E-06
   3.92999984E-02   3.07179448E-06
   3.93499993E-02   3.07050846E-06
   3.94000001E-02   3.06824450E-06
   3.94500010E-02   3.06499260E-06
   3.95000018E-02   3.06074321E-06
   3.95499989E-02   3.05548679E-06
   3.95999998E-02   3.04921423E-06
   3.96500006E-02   3.04191622E-06
   3.97000015E-02   3.03358433E-06
   3.97499986E-02   3.02420972E-06
   3.97999994E-02   3.01378395E-06
   3.98500003E-02   3.00229931E-06
   3.99000011E-02   2.98974805E-06
   3.99499983E-02   2.97612223E-06
   3.99999991E-02   2.96141502E-06
   4.00500000E-02   2.94561914E-06
   4.01000008E-02   2.92872824E-06
   4.01500016E-02   2.91073570E-06
   4.01999988E-02   2.89163540E-06
   4.02499996E-02   2.87142143E-06
   4.03000005E-02   2.85008809E-06
   4.03500013E-02   2.82763017E-06
   4.03999984E-02   2.80404288E-06
   4.04499993E-02   2.77932145E-06
   4.05000001E-02   2.75346133E-06
   4.05500010E-02   2.72645866E-06
   4.06000018E-02   2.69830957E-06
   4.06499989E-02   2.66901088E-06
   4.06999998E-02   2.63855918E-06
   4.07500006E-02   2.60695151E-06
   4.08000015E-02   2.57418560E-06
   4.08499986E-02   2.54025940E-06
   4.08999994E-02   2.50517064E-06
   4.09500003E-02   2.46891796E-06
   4.10000011E-02   2.43150066E-06
   4.10499983E-02   2.39291762E-06
   4.10999991E-02   2.35316793E-06
   4.11499999E-02   2.31225181E-06
   4.12000008E-02   2.27016926E-06
   4.12500016E-02   2.22692074E-06
   4.12999988E-02   2.18250739E-06
   4.13499996E-02   2.13693033E-06
   4.14000005E-02   2.09019095E-06
   4.14500013E-02   2.04229104E-06
   4.14999984E-02   1.99323290E-06
   4.15499993E-02   1.94301947E-06
   4.16000001E-02   1.89165314E-06
   4.16500010E-02   1.83913767E-06
   4.17000018E-02   1.78547646E-06
   4.17499989E-02   1.73067394E-06
   4.17999998E-02   1.67473411E-06
   4.18500006E-02   1.61766172E-06
   4.19000015E-02   1.55946202E-06
   4.19499986E-02   1.50014034E-06
   4.19999994E-02   1.43970260E-06
   4.20500003E-02   1.37815493E-06
   4.21000011E-02   1.31550382E-06
   4.21499982E-02   1.25175620E-06
   4.21999991E-02   1.18691935E-06
   4.22499999E-02   1.12100088E-06
   4.23000008E-02   1.05400886E-06
   4.23500016E-02   9.85951488E-07
   4.23999988E-02   9.16837450E-07
   4.24499996E-02   8.46675960E-07
   4.25000004E-02   7.75476394E-07
   4.25500013E-02   7.03248531E-07
   4.25999984E-02   6.30002489E-07
   4.26499993E-02   5.55748784E-07
   4.27000001E-02   4.80498272E-07
   4.27500010E-02   4.04262181E-07
   4.28000018E-02   3.27052163E-07