   0.00000000       0.00000000    
   4.99999987E-05   0.00000000    
   9.99999975E-05   0.00000000    
   1.50000007E-04   0.00000000    
   1.99999995E-04   3.97209184E-27
   2.50000012E-04   3.95271668E-26
   3.00000014E-04   2.11978388E-25
   3.49999988E-04   8.17595558E-25
   3.99999990E-04   2.54580047E-24
   4.49999992E-04   6.80471101E-24
   5.00000024E-04   1.62079630E-23
   5.49999997E-04   3.52633920E-23
   6.00000028E-04   7.13056358E-23
   6.50000002E-04   1.35715327E-22
   6.99999975E-04   2.45470290E-22
   7.50000007E-04   4.25068649E-22
   7.99999980E-04   7.08866976E-22
   8.50000011E-04   1.14387396E-21
   8.99999985E-04   1.79303353E-21
   9.50000016E-04   2.73904401E-21
   1.00000005E-03   4.08869480E-21
   1.04999996E-03   5.97779599E-21
   1.09999999E-03   8.57667711E-21
   1.15000003E-03   1.20962854E-20
   1.20000006E-03   1.67948958E-20
   1.24999997E-03   2.29853394E-20
   1.30000000E-03   3.10428315E-20
   1.35000004E-03   4.14134242E-20
   1.39999995E-03   5.46226908E-20
   1.44999998E-03   7.12852426E-20
   1.50000001E-03   9.21140446E-20
   1.55000004E-03   1.17930287E-19
   1.59999996E-03   1.49674222E-19
   1.64999999E-03   1.88414670E-19
   1.70000002E-03   2.35359587E-19
   1.75000005E-03   2.91866233E-19
   1.79999997E-03   3.59450534E-19
   1.85000000E-03   4.39796422E-19
   1.90000003E-03   5.34764925E-19
   1.94999995E-03   6.46401479E-19
   2.00000009E-03   7.76942625E-19
   2.05000001E-03   9.28821671E-19
   2.09999993E-03   1.10466993E-18
   2.15000007E-03   1.30732142E-18
   2.19999999E-03   1.53981098E-18
   2.24999990E-03   1.80537628E-18
   2.30000005E-03   2.10744858E-18
   2.34999997E-03   2.44964162E-18
   2.40000011E-03   2.83574244E-18
   2.45000003E-03   3.26970372E-18
   2.49999994E-03   3.75561174E-18
   2.55000009E-03   4.29767436E-18
   2.60000001E-03   4.90018569E-18
   2.64999992E-03   5.56747353E-18
   2.70000007E-03   6.30388927E-18
   2.74999999E-03   7.11374913E-18
   2.79999990E-03   8.00128581E-18
   2.85000005E-03   8.97059342E-18
   2.89999996E-03   1.00254977E-17
   2.95000011E-03   1.11695546E-17
   3.00000003E-03   1.24059961E-17
   3.04999994E-03   1.37375203E-17
   3.10000009E-03   1.51662358E-17
   3.15000000E-03   1.66935404E-17
   3.19999992E-03   1.83201133E-17
   3.25000007E-03   2.00456236E-17
   3.29999998E-03   2.18685709E-17
   3.34999990E-03   2.37862651E-17
   3.40000005E-03   2.57944594E-17
   3.44999996E-03   2.78873223E-17
   3.50000011E-03   3.00572454E-17
   3.55000002E-03   3.22945539E-17
   3.59999994E-03   3.45872603E-17
   3.65000009E-03   3.69206772E-17
   3.70000000E-03   3.92773214E-17
   3.74999992E-03   4.16368343E-17
   3.80000006E-03   4.39755353E-17
   3.84999998E-03   4.62658627E-17
   3.89999989E-03   4.84761422E-17
   3.94999981E-03   5.05700209E-17
   4.00000019E-03   5.25066426E-17
   4.05000011E-03   5.42397978E-17
   4.10000002E-03   5.57177280E-17
   4.14999994E-03   5.68833181E-17
   4.19999985E-03   5.76722565E-17
   4.25000023E-03   5.80128961E-17
   4.30000015E-03   5.78261518E-17
   4.35000006E-03   5.70257520E-17
   4.39999998E-03   5.55166106E-17
   4.44999989E-03   5.31936492E-17
   4.49999981E-03   4.99429585E-17
   4.55000019E-03   4.56400741E-17
   4.60000010E-03   4.01484882E-17
   4.65000002E-03   3.33213696E-17
   4.69999993E-03   2.49995173E-17
   4.74999985E-03   1.50094850E-17
   4.80000023E-03   3.16408930E-18
   4.85000014E-03  -1.07384810E-17
   4.90000006E-03  -2.69150972E-17
   4.94999997E-03  -4.55978052E-17
   4.99999989E-03  -6.70366425E-17
   5.04999980E-03  -9.15012966E-17
   5.10000018E-03  -1.19277168E-16
   5.15000010E-03  -1.50668672E-16
   5.20000001E-03  -1.86004796E-16
   5.24999993E-03  -2.25635151E-16
   5.29999984E-03  -2.69928436E-16
   5.35000023E-03  -3.19278799E-16
   5.40000014E-03  -3.74105945E-16
   5.45000006E-03  -4.34854963E-16
   5.49999997E-03  -5.01997200E-16
   5.54999989E-03  -5.76030897E-16
   5.59999980E-03  -6.57484867E-16
   5.65000018E-03  -7.46914606E-16
   5.70000010E-03  -8.44910653E-16
   5.75000001E-03  -9.52092244E-16
   5.79999993E-03  -1.06911059E-15
   5.84999984E-03  -1.19665490E-15
   5.90000022E-03  -1.33544601E-15
   5.95000014E-03  -1.48624276E-15
   6.00000005E-03  -1.64984146E-15
   6.04999997E-03  -1.82708035E-15
   6.09999988E-03  -2.01883378E-15
   6.14999980E-03  -2.22601741E-15
   6.20000018E-03  -2.44959387E-15
   6.25000009E-03  -2.69056289E-15
   6.30000001E-03  -2.94996397E-15
   6.34999992E-03  -3.22889997E-15
   6.39999984E-03  -3.52851797E-15
   6.45000022E-03  -3.84998836E-15
   6.50000013E-03  -4.19455035E-15
   6.55000005E-03  -4.56349631E-15
   6.59999996E-03  -4.95815691E-15
   6.64999988E-03  -5.37993273E-15
   6.69999979E-03  -5.83025822E-15
   6.75000018E-03  -6.31061865E-15
   6.80000009E-03  -6.82257637E-15
   6.85000001E-03  -7.36773906E-15
   6.89999992E-03  -7.94775588E-15
   6.94999984E-03  -8.56435606E-15
   7.00000022E-03  -9.21933530E-15
   7.05000013E-03  -9.91451387E-15
   7.10000005E-03  -1.06517976E-14
   7.14999996E-03  -1.14331508E-14
   7.19999988E-03  -1.22605800E-14
   7.24999979E-03  -1.31361698E-14
   7.30000017E-03  -1.40620759E-14
   7.35000009E-03  -1.50405032E-14
   7.40000000E-03  -1.60737156E-14
   7.44999992E-03  -1.71640232E-14
   7.49999983E-03  -1.83138264E-14
   7.55000021E-03  -1.95255934E-14
   7.60000013E-03  -2.08018264E-14
   7.65000004E-03  -2.21451106E-14
   7.69999996E-03  -2.35581072E-14
   7.74999987E-03  -2.50435421E-14
   7.79999979E-03  -2.66041512E-14
   7.84999970E-03  -2.82427805E-14
   7.89999962E-03  -2.99623065E-14
   7.95000046E-03  -3.17656464E-14
   8.00000038E-03  -3.36558513E-14
   8.05000030E-03  -3.56359500E-14
   8.10000021E-03  -3.77090699E-14
   8.15000013E-03  -3.98784433E-14
   8.20000004E-03  -4.21472481E-14
   8.24999996E-03  -4.45187439E-14
   8.29999987E-03  -4.69962780E-14
   8.34999979E-03  -4.95832352E-14
   8.39999970E-03  -5.22830578E-14
   8.44999962E-03  -5.50992256E-14
   8.50000046E-03  -5.80353026E-14
   8.55000038E-03  -6.10947789E-14
   8.60000029E-03  -6.42812423E-14
   8.65000021E-03  -6.75983114E-14
   8.70000012E-03  -7.10497064E-14
   8.75000004E-03  -7.46391610E-14
   8.79999995E-03  -7.83702937E-14
   8.84999987E-03  -8.22468450E-14
   8.89999978E-03  -8.62726096E-14
   8.94999970E-03  -9.04513552E-14
   8.99999961E-03  -9.47868696E-14
   9.05000046E-03  -9.92830153E-14
   9.10000037E-03  -1.03943513E-13
   9.15000029E-03  -1.08772068E-13
   9.20000020E-03  -1.13772557E-13
   9.25000012E-03  -1.18948783E-13
   9.30000003E-03  -1.24304430E-13
   9.34999995E-03  -1.29843117E-13
   9.39999986E-03  -1.35568585E-13
   9.44999978E-03  -1.41484467E-13
   9.49999969E-03  -1.47594420E-13
   9.54999961E-03  -1.53902078E-13
   9.60000046E-03  -1.60410856E-13
   9.65000037E-03  -1.67124154E-13
   9.70000029E-03  -1.74045484E-13
   9.75000020E-03  -1.81178193E-13
   9.80000012E-03  -1.88525370E-13
   9.85000003E-03  -1.96090160E-13
   9.89999995E-03  -2.03875545E-13
   9.94999986E-03  -2.11884492E-13
   9.99999978E-03  -2.20119902E-13
   1.00499997E-02  -2.28584350E-13
   1.00999996E-02  -2.37280220E-13
   1.01500005E-02  -2.46210008E-13
   1.02000004E-02  -2.55376232E-13
   1.02500003E-02  -2.64780710E-13
   1.03000002E-02  -2.74425177E-13
   1.03500001E-02  -2.84311366E-13
   1.04000000E-02  -2.94440931E-13
   1.04499999E-02  -3.04815201E-13
   1.04999999E-02  -3.15435259E-13
   1.05499998E-02  -3.26302055E-13
   1.05999997E-02  -3.37416212E-13
   1.06499996E-02  -3.48777918E-13
   1.07000005E-02  -3.60387555E-13
   1.07500004E-02  -3.72244932E-13
   1.08000003E-02  -3.84349372E-13
   1.08500002E-02  -3.96700197E-13
   1.09000001E-02  -4.09296241E-13
   1.09500000E-02  -4.22136447E-13
   1.09999999E-02  -4.35219054E-13
   1.10499999E-02  -4.48541594E-13
   1.10999998E-02  -4.62101765E-13
   1.11499997E-02  -4.75896883E-13
   1.11999996E-02  -4.89923694E-13
   1.12500004E-02  -5.04178622E-13
   1.13000004E-02  -5.18657654E-13
   1.13500003E-02  -5.33356020E-13
   1.14000002E-02  -5.48268787E-13
   1.14500001E-02  -5.63390643E-13
   1.15000000E-02  -5.78715515E-13
   1.15499999E-02  -5.94237170E-13
   1.15999999E-02  -6.09948778E-13
   1.16499998E-02  -6.25842585E-13
   1.16999997E-02  -6.41910624E-13
   1.17499996E-02  -6.58144871E-13
   1.18000004E-02  -6.74536056E-13
   1.18500004E-02  -6.91073826E-13
   1.19000003E-02  -7.07748476E-13
   1.19500002E-02  -7.24548785E-13
   1.20000001E-02  -7.41462935E-13
   1.20500000E-02  -7.58478946E-13
   1.20999999E-02  -7.75584187E-13
   1.21499998E-02  -7.92764996E-13
   1.21999998E-02  -8.10006521E-13
   1.22499997E-02  -8.27293366E-13
   1.22999996E-02  -8.44610460E-13
   1.23500004E-02  -8.61941703E-13
   1.24000004E-02  -8.79269097E-13
   1.24500003E-02  -8.96574590E-13
   1.25000002E-02  -9.13839642E-13
   1.25500001E-02  -9.31044087E-13
   1.26000000E-02  -9.48167651E-13
   1.26499999E-02  -9.65188541E-13
   1.26999998E-02  -9.82084965E-13
   1.27499998E-02  -9.98833394E-13
   1.27999997E-02  -1.01540998E-12
   1.28499996E-02  -1.03178945E-12
   1.29000004E-02  -1.04794537E-12
   1.29500004E-02  -1.06385072E-12
   1.30000003E-02  -1.07947895E-12
   1.30500002E-02  -1.09480144E-12
   1.31000001E-02  -1.10978750E-12
   1.31500000E-02  -1.12440558E-12
   1.31999999E-02  -1.13862403E-12
   1.32499998E-02  -1.15241063E-12
   1.32999998E-02  -1.16573136E-12
   1.33499997E-02  -1.17855042E-12
   1.33999996E-02  -1.19083248E-12
   1.34500004E-02  -1.20254045E-12
   1.35000004E-02  -1.21363553E-12
   1.35500003E-02  -1.22407878E-12
   1.36000002E-02  -1.23382988E-12
   1.36500001E-02  -1.24284697E-12
   1.37000000E-02  -1.25108658E-12
   1.37499999E-02  -1.25850437E-12
   1.37999998E-02  -1.26505588E-12
   1.38499998E-02  -1.27069557E-12
   1.38999997E-02  -1.27537618E-12
   1.39499996E-02  -1.27904859E-12
   1.40000004E-02  -1.28166249E-12
   1.40500003E-02  -1.28316650E-12
   1.41000003E-02  -1.28350835E-12
   1.41500002E-02  -1.28263622E-12
   1.42000001E-02  -1.28049437E-12
   1.42500000E-02  -1.27702666E-12
   1.42999999E-02  -1.27217627E-12
   1.43499998E-02  -1.26588464E-12
   1.43999998E-02  -1.25809237E-12
   1.44499997E-02  -1.24873918E-12
   1.44999996E-02  -1.23776401E-12
   1.45500004E-02  -1.22510379E-12
   1.46000003E-02  -1.21069279E-12
   1.46500003E-02  -1.19446564E-12
   1.47000002E-02  -1.17635632E-12
   1.47500001E-02  -1.15629685E-12
   1.48000000E-02  -1.13421739E-12
   1.48499999E-02  -1.11004673E-12
   1.48999998E-02  -1.08371439E-12
   1.49499997E-02  -1.05514729E-12
   1.49999997E-02  -1.02427225E-12
   1.50499996E-02  -9.91014670E-13
   1.51000004E-02  -9.55298015E-13
   1.51500003E-02  -9.17045194E-13
   1.52000003E-02  -8.76179500E-13
   1.52500002E-02  -8.32620539E-13
   1.53000001E-02  -7.86288461E-13
   1.53500000E-02  -7.37103575E-13
   1.53999999E-02  -6.84981856E-13
   1.54499998E-02  -6.29839768E-13
   1.54999997E-02  -5.71593771E-13
   1.55499997E-02  -5.10159081E-13
   1.55999996E-02  -4.45449098E-13
   1.56500004E-02  -3.77377844E-13
   1.56999994E-02  -3.05857200E-13
   1.57500003E-02  -2.30798453E-13
   1.57999992E-02  -1.52112697E-13
   1.58500001E-02  -6.97111639E-14
   1.59000009E-02   1.64952280E-14
   1.59499999E-02   1.06599171E-13
   1.60000008E-02   2.00693357E-13
   1.60499997E-02   2.98868677E-13
   1.61000006E-02   4.01218636E-13
   1.61499996E-02   5.07837641E-13
   1.62000004E-02   6.18819340E-13
   1.62499994E-02   7.34256731E-13
   1.63000003E-02   8.54243596E-13
   1.63499992E-02   9.78875943E-13
   1.64000001E-02   1.10824804E-12
   1.64500009E-02   1.24245362E-12
   1.64999999E-02   1.38158701E-12
   1.65500008E-02   1.52574416E-12
   1.65999997E-02   1.67502037E-12
   1.66500006E-02   1.82950942E-12
   1.66999996E-02   1.98930564E-12
   1.67500004E-02   2.15450270E-12
   1.67999994E-02   2.32519386E-12
   1.68500002E-02   2.50147299E-12
   1.68999992E-02   2.68343442E-12
   1.69500001E-02   2.87116901E-12
   1.70000009E-02   3.06476849E-12
   1.70499999E-02   3.26432219E-12
   1.71000008E-02   3.46992010E-12
   1.71499997E-02   3.68165221E-12
   1.72000006E-02   3.89960546E-12
   1.72499996E-02   4.12386835E-12
   1.73000004E-02   4.35452325E-12
   1.73499994E-02   4.59165388E-12
   1.74000002E-02   4.83534567E-12
   1.74499992E-02   5.08567754E-12
   1.75000001E-02   5.34272886E-12
   1.75500009E-02   5.60657770E-12
   1.75999999E-02   5.87729952E-12
   1.76500008E-02   6.15496933E-12
   1.76999997E-02   6.43966000E-12
   1.77500006E-02   6.73143789E-12
   1.77999996E-02   7.03036934E-12
   1.78500004E-02   7.33651941E-12
   1.78999994E-02   7.64995012E-12
   1.79500002E-02   7.97071957E-12
   1.79999992E-02   8.29888415E-12
   1.80500001E-02   8.63449763E-12
   1.81000009E-02   8.97761032E-12
   1.81499999E-02   9.32827166E-12
   1.82000007E-02   9.68652328E-12
   1.82499997E-02   1.00524025E-11
   1.83000006E-02   1.04259457E-11
   1.83499996E-02   1.08071850E-11
   1.84000004E-02   1.11961499E-11
   1.84499994E-02   1.15928630E-11
   1.85000002E-02   1.19973441E-11
   1.85499992E-02   1.24096089E-11
   1.86000001E-02   1.28296679E-11
   1.86500009E-02   1.32575270E-11
   1.86999999E-02   1.36931855E-11
   1.87500007E-02   1.41366415E-11
   1.87999997E-02   1.45878847E-11
   1.88500006E-02   1.50468995E-11
   1.88999996E-02   1.55136650E-11
   1.89500004E-02   1.59881552E-11
   1.89999994E-02   1.64703425E-11
   1.90500002E-02   1.69601833E-11
   1.90999992E-02   1.74576308E-11
   1.91500001E-02   1.79626366E-11
   1.92000009E-02   1.84751416E-11
   1.92499999E-02   1.89950833E-11
   1.93000007E-02   1.95223889E-11
   1.93499997E-02   2.00569804E-11
   1.94000006E-02   2.05987710E-11
   1.94499996E-02   2.11476670E-11
   1.95000004E-02   2.17035643E-11
   1.95499994E-02   2.22663537E-11
   1.96000002E-02   2.28359224E-11
   1.96499992E-02   2.34121368E-11
   1.97000001E-02   2.39948686E-11
   1.97500009E-02   2.45839737E-11
   1.97999999E-02   2.51792979E-11
   1.98500007E-02   2.57806814E-11
   1.98999997E-02   2.63879578E-11
   1.99500006E-02   2.70009414E-11
   1.99999996E-02   2.76194467E-11
   2.00500004E-02   2.82432723E-11
   2.00999994E-02   2.88722136E-11
   2.01500002E-02   2.95060469E-11
   2.01999992E-02   3.01445431E-11
   2.02500001E-02   3.07874663E-11
   2.03000009E-02   3.14345598E-11
   2.03499999E-02   3.20855634E-11
   2.04000007E-02   3.27402064E-11
   2.04499997E-02   3.33982078E-11
   2.05000006E-02   3.40592658E-11
   2.05499995E-02   3.47230751E-11
   2.06000004E-02   3.53893165E-11
   2.06499994E-02   3.60576603E-11
   2.07000002E-02   3.67277701E-11
   2.07499992E-02   3.73992885E-11
   2.08000001E-02   3.80718443E-11
   2.08500009E-02   3.87450592E-11
   2.08999999E-02   3.94185448E-11
   2.09500007E-02   4.00918916E-11
   2.09999997E-02   4.07646798E-11
   2.10500006E-02   4.14364792E-11
   2.10999995E-02   4.21068458E-11
   2.11500004E-02   4.27753215E-11
   2.11999994E-02   4.34414345E-11
   2.12500002E-02   4.41046991E-11
   2.12999992E-02   4.47646191E-11
   2.13500001E-02   4.54206742E-11
   2.14000009E-02   4.60723439E-11
   2.14499999E-02   4.67190835E-11
   2.15000007E-02   4.73603344E-11
   2.15499997E-02   4.79955346E-11
   2.16000006E-02   4.86241047E-11
   2.16499995E-02   4.92454376E-11
   2.17000004E-02   4.98589191E-11
   2.17499994E-02   5.04639247E-11
   2.18000002E-02   5.10598161E-11
   2.18499992E-02   5.16459271E-11
   2.19000001E-02   5.22215847E-11
   2.19500009E-02   5.27861123E-11
   2.19999999E-02   5.33388021E-11
   2.20500007E-02   5.38789360E-11
   2.20999997E-02   5.44057889E-11
   2.21500006E-02   5.49186113E-11
   2.21999995E-02   5.54166331E-11
   2.22500004E-02   5.58990840E-11
   2.22999994E-02   5.63651764E-11
   2.23500002E-02   5.68141020E-11
   2.23999992E-02   5.72450490E-11
   2.24500000E-02   5.76571776E-11
   2.25000009E-02   5.80496415E-11
   2.25499999E-02   5.84215801E-11
   2.26000007E-02   5.87721052E-11
   2.26499997E-02   5.91003288E-11
   2.27000006E-02   5.94053418E-11
   2.27499995E-02   5.96862282E-11
   2.28000004E-02   5.99420444E-11
   2.28499994E-02   6.01718536E-11
   2.29000002E-02   6.03746844E-11
   2.29499992E-02   6.05495584E-11
   2.30000000E-02   6.06954903E-11
   2.30500009E-02   6.08114809E-11
   2.30999999E-02   6.08965170E-11
   2.31500007E-02   6.09495857E-11
   2.31999997E-02   6.09696321E-11
   2.32500006E-02   6.09556017E-11
   2.32999995E-02   6.09064396E-11
   2.33500004E-02   6.08210565E-11
   2.33999994E-02   6.06983838E-11
   2.34500002E-02   6.05373113E-11
   2.34999992E-02   6.03367425E-11
   2.35500000E-02   6.00955466E-11
   2.36000009E-02   5.98126063E-11
   2.36499999E-02   5.94867766E-11
   2.37000007E-02   5.91169128E-11
   2.37499997E-02   5.87018559E-11
   2.38000005E-02   5.82404402E-11
   2.38499995E-02   5.77315210E-11
   2.39000004E-02   5.71738976E-11
   2.39499994E-02   5.65663835E-11
   2.40000002E-02   5.59078027E-11
   2.40499992E-02   5.51969581E-11
   2.41000000E-02   5.44326285E-11
   2.41500009E-02   5.36136135E-11
   2.41999999E-02   5.27387092E-11
   2.42500007E-02   5.18066978E-11
   2.42999997E-02   5.08163511E-11
   2.43500005E-02   4.97664548E-11
   2.43999995E-02   4.86557947E-11
   2.44500004E-02   4.74831459E-11
   2.44999994E-02   4.62472942E-11
   2.45500002E-02   4.49470391E-11
   2.45999992E-02   4.35811387E-11
   2.46500000E-02   4.21483647E-11
   2.47000009E-02   4.06474923E-11
   2.47499999E-02   3.90773178E-11
   2.48000007E-02   3.74366475E-11
   2.48499997E-02   3.57242569E-11
   2.49000005E-02   3.39389593E-11
   2.49499995E-02   3.20795820E-11
   2.50000004E-02   3.01449213E-11
   2.50499994E-02   2.81337974E-11
   2.51000002E-02   2.60450515E-11
   2.51499992E-02   2.38775354E-11
   2.52000000E-02   2.16300970E-11
   2.52500009E-02   1.93016089E-11
   2.52999999E-02   1.68909487E-11
   2.53500007E-02   1.43970226E-11
   2.53999997E-02   1.18187361E-11
   2.54500005E-02   9.15501355E-12
   2.54999995E-02   6.40481158E-12
   2.55500004E-02   3.56708803E-12
   2.55999994E-02   6.40847726E-13
   2.56500002E-02  -2.37491645E-12
   2.56999992E-02  -5.48117758E-12
   2.57500000E-02  -8.67888747E-12
   2.58000009E-02  -1.19689675E-11
   2.58499999E-02  -1.53523288E-11
   2.59000007E-02  -1.88298474E-11
   2.59499997E-02  -2.24023734E-11
   2.60000005E-02  -2.60707289E-11
   2.60499995E-02  -2.98356617E-11
   2.61000004E-02  -3.36979299E-11
   2.61499994E-02  -3.76582862E-11
   2.62000002E-02  -4.17174073E-11
   2.62499992E-02  -4.58759281E-11
   2.63000000E-02  -5.01345007E-11
   2.63500009E-02  -5.44936804E-11
   2.63999999E-02  -5.89540014E-11
   2.64500007E-02  -6.35159841E-11
   2.64999997E-02  -6.81800866E-11
   2.65500005E-02  -7.29467112E-11
   2.65999995E-02  -7.78162118E-11
   2.66500004E-02  -8.27889146E-11
   2.66999993E-02  -8.78651249E-11
   2.67500002E-02  -9.30450578E-11
   2.67999992E-02  -9.83289006E-11
   2.68500000E-02  -1.03716750E-10
   2.69000009E-02  -1.09208691E-10
   2.69499999E-02  -1.14804756E-10
   2.70000007E-02  -1.20504912E-10
   2.70499997E-02  -1.26309033E-10
   2.71000005E-02  -1.32216973E-10
   2.71499995E-02  -1.38228526E-10
   2.72000004E-02  -1.44343384E-10
   2.72499993E-02  -1.50561216E-10
   2.73000002E-02  -1.56881647E-10
   2.73499992E-02  -1.63304176E-10
   2.74000000E-02  -1.69828276E-10
   2.74500009E-02  -1.76453380E-10
   2.74999999E-02  -1.83178764E-10
   2.75500007E-02  -1.90003693E-10
   2.75999997E-02  -1.96927363E-10
   2.76500005E-02  -2.03948872E-10
   2.76999995E-02  -2.11067219E-10
   2.77500004E-02  -2.18281393E-10
   2.77999993E-02  -2.25590255E-10
   2.78500002E-02  -2.32992570E-10
   2.78999992E-02  -2.40487075E-10
   2.79500000E-02  -2.48072368E-10
   2.80000009E-02  -2.55747007E-10
   2.80499998E-02  -2.63509436E-10
   2.81000007E-02  -2.71358103E-10
   2.81499997E-02  -2.79291229E-10
   2.82000005E-02  -2.87307039E-10
   2.82499995E-02  -2.95403618E-10
   2.83000004E-02  -3.03578995E-10
   2.83499993E-02  -3.11831033E-10
   2.84000002E-02  -3.20157595E-10
   2.84499992E-02  -3.28556404E-10
   2.85000000E-02  -3.37025158E-10
   2.85500009E-02  -3.45561357E-10
   2.85999998E-02  -3.54162449E-10
   2.86500007E-02  -3.62825797E-10
   2.86999997E-02  -3.71548570E-10
   2.87500005E-02  -3.80327936E-10
   2.87999995E-02  -3.89160953E-10
   2.88500004E-02  -3.98044570E-10
   2.88999993E-02  -4.06975620E-10
   2.89500002E-02  -4.15950774E-10
   2.89999992E-02  -4.24966673E-10
   2.90500000E-02  -4.34019848E-10
   2.91000009E-02  -4.43106662E-10
   2.91499998E-02  -4.52223481E-10
   2.92000007E-02  -4.61366445E-10
   2.92499997E-02  -4.70531669E-10
   2.93000005E-02  -4.79715101E-10
   2.93499995E-02  -4.88912577E-10
   2.94000003E-02  -4.98119879E-10
   2.94499993E-02  -5.07332676E-10
   2.95000002E-02  -5.16546472E-10
   2.95499992E-02  -5.25756716E-10
   2.96000000E-02  -5.34958688E-10
   2.96500009E-02  -5.44147505E-10
   2.96999998E-02  -5.53318391E-10
   2.97500007E-02  -5.62466240E-10
   2.97999997E-02  -5.71586001E-10
   2.98500005E-02  -5.80672344E-10
   2.98999995E-02  -5.89719884E-10
   2.99500003E-02  -5.98723293E-10
   2.99999993E-02  -6.07676798E-10
   3.00500002E-02  -6.16574847E-10
   3.00999992E-02  -6.25411611E-10
   3.01500000E-02  -6.34181152E-10
   3.02000009E-02  -6.42877418E-10
   3.02499998E-02  -6.51494358E-10
   3.03000007E-02  -6.60025645E-10
   3.03499997E-02  -6.68465006E-10
   3.04000005E-02  -6.76805945E-10
   3.04499995E-02  -6.85041857E-10
   3.05000003E-02  -6.93166191E-10
   3.05499993E-02  -7.01172120E-10
   3.06000002E-02  -7.09052761E-10
   3.06499992E-02  -7.16801229E-10
   3.07000000E-02  -7.24410365E-10
   3.07500008E-02  -7.31873062E-10
   3.07999998E-02  -7.39182104E-10
   3.08500007E-02  -7.46330053E-10
   3.08999997E-02  -7.53309470E-10
   3.09500005E-02  -7.60112917E-10
   3.09999995E-02  -7.66732622E-10
   3.10500003E-02  -7.73160980E-10
   3.10999993E-02  -7.79390164E-10
   3.11500002E-02  -7.85412235E-10
   3.11999992E-02  -7.91219257E-10
   3.12500000E-02  -7.96803179E-10
   3.13000008E-02  -8.02155953E-10
   3.13500017E-02  -8.07269362E-10
   3.13999988E-02  -8.12135026E-10
   3.14499997E-02  -8.16744672E-10
   3.15000005E-02  -8.21089918E-10
   3.15500014E-02  -8.25162272E-10
   3.15999985E-02  -8.28953239E-10
   3.16499993E-02  -8.32454217E-10
   3.17000002E-02  -8.35656599E-10
   3.17500010E-02  -8.38551673E-10
   3.18000019E-02  -8.41130665E-10
   3.18499990E-02  -8.43384917E-10
   3.18999998E-02  -8.45305548E-10
   3.19500007E-02  -8.46883619E-10
   3.20000015E-02  -8.48110304E-10
   3.20499986E-02  -8.48976722E-10
   3.20999995E-02  -8.49473936E-10
   3.21500003E-02  -8.49592952E-10
   3.22000012E-02  -8.49324722E-10
   3.22499983E-02  -8.48660309E-10
   3.22999991E-02  -8.47590720E-10
   3.23500000E-02  -8.46106907E-10
   3.24000008E-02  -8.44199932E-10
   3.24500017E-02  -8.41860803E-10
   3.24999988E-02  -8.39080416E-10
   3.25499997E-02  -8.35849889E-10
   3.26000005E-02  -8.32160230E-10
   3.26500013E-02  -8.28002444E-10
   3.26999985E-02  -8.23367707E-10
   3.27499993E-02  -8.18247137E-10
   3.28000002E-02  -8.12631906E-10
   3.28500010E-02  -8.06513245E-10
   3.29000019E-02  -7.99882327E-10
   3.29499990E-02  -7.92730437E-10
   3.29999998E-02  -7.85049026E-10
   3.30500007E-02  -7.76829490E-10
   3.31000015E-02  -7.68063335E-10
   3.31499986E-02  -7.58742180E-10
   3.31999995E-02  -7.48857809E-10
   3.32500003E-02  -7.38401840E-10
   3.33000012E-02  -7.27366223E-10
   3.33499983E-02  -7.15742743E-10
   3.33999991E-02  -7.03523517E-10
   3.34500000E-02  -6.90700885E-10
   3.35000008E-02  -6.77267020E-10
   3.35500017E-02  -6.63214428E-10
   3.35999988E-02  -6.48535614E-10
   3.36499996E-02  -6.33223307E-10
   3.37000005E-02  -6.17270401E-10
   3.37500013E-02  -6.00669903E-10
   3.37999985E-02  -5.83414872E-10
   3.38499993E-02  -5.65498703E-10
   3.39000002E-02  -5.46914847E-10
   3.39500010E-02  -5.27657029E-10
   3.40000018E-02  -5.07719089E-10
   3.40499990E-02  -4.87095031E-10
   3.40999998E-02  -4.65779193E-10
   3.41500007E-02  -4.43766079E-10
   3.42000015E-02  -4.21050278E-10
   3.42499986E-02  -3.97626765E-10
   3.42999995E-02  -3.73490572E-10
   3.43500003E-02  -3.48637091E-10
   3.44000012E-02  -3.23061966E-10
   3.44499983E-02  -2.96760977E-10
   3.44999991E-02  -2.69730210E-10
   3.45500000E-02  -2.41966058E-10
   3.46000008E-02  -2.13465148E-10
   3.46500017E-02  -1.84224427E-10
   3.46999988E-02  -1.54241050E-10
   3.47499996E-02  -1.23512506E-10
   3.48000005E-02  -9.20365451E-11
   3.48500013E-02  -5.98112948E-11
   3.48999985E-02  -2.68351626E-11
   3.49499993E-02   6.89309157E-12
   3.50000001E-02   4.13745184E-11
   3.50500010E-02   7.66097880E-11
   3.51000018E-02   1.12599152E-10
   3.51499990E-02   1.49342469E-10
   3.51999998E-02   1.86839308E-10
   3.52500007E-02   2.25088947E-10
   3.53000015E-02   2.64090222E-10
   3.53499986E-02   3.03841730E-10
   3.53999995E-02   3.44341528E-10
   3.54500003E-02   3.85587229E-10
   3.55000012E-02   4.27576308E-10
   3.55499983E-02   4.70305739E-10
   3.55999991E-02   5.13771969E-10
   3.56500000E-02   5.57971114E-10
   3.57000008E-02   6.02898786E-10
   3.57500017E-02   6.48550436E-10
   3.57999988E-02   6.94921010E-10
   3.58499996E-02   7.42004735E-10
   3.59000005E-02   7.89795562E-10
   3.59500013E-02   8.38287106E-10
   3.59999985E-02   8.87472373E-10
   3.60499993E-02   9.37344091E-10
   3.61000001E-02   9.87894211E-10
   3.61500010E-02   1.03911491E-09
   3.62000018E-02   1.09099707E-09
   3.62499990E-02   1.14353149E-09
   3.62999998E-02   1.19670851E-09
   3.63500006E-02   1.25051791E-09
   3.64000015E-02   1.30494882E-09
   3.64499986E-02   1.35999023E-09
   3.64999995E-02   1.41563050E-09
   3.65500003E-02   1.47185719E-09
   3.66000012E-02   1.52865764E-09
   3.66499983E-02   1.58601898E-09
   3.66999991E-02   1.64392711E-09
   3.67500000E-02   1.70236791E-09
   3.68000008E-02   1.76132697E-09
   3.68500017E-02   1.82078885E-09
   3.68999988E-02   1.88073734E-09
   3.69499996E-02   1.94115657E-09
   3.70000005E-02   2.00202965E-09
   3.70500013E-02   2.06333906E-09
   3.70999984E-02   2.12506723E-09
   3.71499993E-02   2.18719554E-09
   3.72000001E-02   2.24970464E-09
   3.72500010E-02   2.31257546E-09
   3.73000018E-02   2.37578801E-09
   3.73499990E-02   2.43932163E-09
   3.73999998E-02   2.50315546E-09
   3.74500006E-02   2.56726751E-09
   3.75000015E-02   2.63163580E-09
   3.75499986E-02   2.69623768E-09
   3.75999995E-02   2.76105028E-09
   3.76500003E-02   2.82604962E-09
   3.77000012E-02   2.89121105E-09
   3.77499983E-02   2.95651015E-09
   3.77999991E-02   3.02192182E-09
   3.78500000E-02   3.08741965E-09
   3.79000008E-02   3.15297743E-09
   3.79500017E-02   3.21856852E-09
   3.79999988E-02   3.28416561E-09
   3.80499996E-02   3.34974048E-09
   3.81000005E-02   3.41526474E-09
   3.81500013E-02   3.48070950E-09
   3.81999984E-02   3.54604524E-09
   3.82499993E-02   3.61124264E-09
   3.83000001E-02   3.67627062E-09
   3.83500010E-02   3.74109854E-09
   3.84000018E-02   3.80569576E-09
   3.84499989E-02   3.87002963E-09
   3.84999998E-02   3.93406774E-09
   3.85500006E-02   3.99777811E-09
   3.86000015E-02   4.06112743E-09
   3.86499986E-02   4.12408152E-09
   3.86999995E-02   4.18660706E-09
   3.87500003E-02   4.24866897E-09
   3.88000011E-02   4.31023217E-09
   3.88499983E-02   4.37126202E-09
   3.88999991E-02   4.43172210E-09
   3.89500000E-02   4.49157689E-09
   3.90000008E-02   4.55078908E-09
   3.90500017E-02   4.60932270E-09
   3.90999988E-02   4.66713956E-09
   3.91499996E-02   4.72420325E-09
   3.92000005E-02   4.78047513E-09
   3.92500013E-02   4.83591700E-09
   3.92999984E-02   4.89049068E-09
   3.93499993E-02   4.94415664E-09
   3.94000001E-02   4.99687713E-09
   3.94500010E-02   5.04861086E-09
   3.95000018E-02   5.09931919E-09
   3.95499989E-02   5.14896170E-09
   3.95999998E-02   5.19749888E-09
   3.96500006E-02   5.24488986E-09
   3.97000015E-02   5.29109423E-09
   3.97499986E-02   5.33607070E-09
   3.97999994E-02   5.37977840E-09
   3.98500003E-02   5.42217604E-09
   3.99000011E-02   5.46322321E-09
   3.99499983E-02   5.50287726E-09
   3.99999991E-02   5.54109736E-09
   4.00500000E-02   5.57784130E-09
   4.01000008E-02   5.61306734E-09
   4.01500016E-02   5.64673375E-09
   4.01999988E-02   5.67879832E-09
   4.02499996E-02   5.70921976E-09
   4.03000005E-02   5.73795589E-09
   4.03500013E-02   5.76496539E-09
   4.03999984E-02   5.79020520E-09
   4.04499993E-02   5.81363402E-09
   4.05000001E-02   5.83521009E-09
   4.05500010E-02   5.85489124E-09
   4.06000018E-02   5.87263660E-09
   4.06499989E-02   5.88840443E-09
   4.06999998E-02   5.90215299E-09
   4.07500006E-02   5.91384097E-09
   4.08000015E-02   5.92342797E-09
   4.08499986E-02   5.93087224E-09
   4.08999994E-02   5.93613425E-09
   4.09500003E-02   5.93917315E-09
   4.10000011E-02   5.93994942E-09
   4.10499983E-02   5.93842220E-09
   4.10999991E-02   5.93455285E-09
   4.11499999E-02   5.92830141E-09
   4.12000008E-02   5.91962923E-09
   4.12500016E-02   5.90849814E-09
   4.12999988E-02   5.89487037E-09
   4.13499996E-02   5.87870774E-09
   4.14000005E-02   5.85997295E-09
   4.14500013E-02   5.83862958E-09
   4.14999984E-02   5.81464166E-09
   4.15499993E-02   5.78797366E-09
   4.16000001E-02   5.75858961E-09
   4.16500010E-02   5.72645531E-09
   4.17000018E-02   5.69153702E-09
   4.17499989E-02   5.65380098E-09
   4.17999998E-02   5.61321434E-09
   4.18500006E-02   5.56974467E-09
   4.19000015E-02   5.52336132E-09
   4.19499986E-02   5.47403278E-09
   4.19999994E-02   5.42172884E-09
   4.20500003E-02   5.36642109E-09
   4.21000011E-02   5.30808064E-09
   4.21499982E-02   5.24667954E-09
   4.21999991E-02   5.18219068E-09
   4.22499999E-02   5.11458964E-09
   4.23000008E-02   5.04384978E-09
   4.23500016E-02   4.96994668E-09
   4.23999988E-02   4.89285812E-09
   4.24499996E-02   4.81256057E-09
   4.25000004E-02   4.72903317E-09
   4.25500013E-02   4.64225591E-09
   4.25999984E-02   4.55220928E-09
   4.26499993E-02   4.45887371E-09
   4.27000001E-02   4.36223280E-09
   4.27500010E-02   4.26227098E-09
   4.28000018E-02   4.15897139E-09