   0.00000000       0.00000000    
   4.99999987E-05   0.00000000    
   9.99999975E-05   0.00000000    
   1.50000007E-04   0.00000000    
   1.99999995E-04   8.52773252E-29
   2.50000012E-04  -1.52796425E-27
   3.00000014E-04  -2.14859641E-26
   3.49999988E-04  -1.35503032E-25
   3.99999990E-04  -5.89814881E-25
   4.49999992E-04  -2.03635765E-24
   5.00000024E-04  -5.97291596E-24
   5.49999997E-04  -1.54995690E-23
   6.00000028E-04  -3.65353702E-23
   6.50000002E-04  -7.96773811E-23
   6.99999975E-04  -1.62925563E-22
   7.50000007E-04  -3.15545246E-22
   7.99999980E-04  -5.83384374E-22
   8.50000011E-04  -1.03602383E-21
   8.99999985E-04  -1.77618922E-21
   9.50000016E-04  -2.95192973E-21
   1.00000005E-03  -4.77207281E-21
   1.04999996E-03  -7.52569971E-21
   1.09999999E-03  -1.16062003E-20
   1.15000003E-03  -1.75407429E-20
   1.20000006E-03  -2.60260570E-20
   1.24999997E-03  -3.79715321E-20
   1.30000000E-03  -5.45503254E-20
   1.35000004E-03  -7.72601556E-20
   1.39999995E-03  -1.07994213E-19
   1.44999998E-03  -1.49124560E-19
   1.50000001E-03  -2.03597958E-19
   1.55000004E-03  -2.75046885E-19
   1.59999996E-03  -3.67917063E-19
   1.64999999E-03  -4.87612890E-19
   1.70000002E-03  -6.40662448E-19
   1.75000005E-03  -8.34904618E-19
   1.79999997E-03  -1.07969817E-18
   1.85000000E-03  -1.38615763E-18
   1.90000003E-03  -1.76742048E-18
   1.94999995E-03  -2.23893928E-18
   2.00000009E-03  -2.81881046E-18
   2.05000001E-03  -3.52813211E-18
   2.09999993E-03  -4.39140840E-18
   2.15000007E-03  -5.43698868E-18
   2.19999999E-03  -6.69755486E-18
   2.24999990E-03  -8.21064356E-18
   2.30000005E-03  -1.00192293E-17
   2.34999997E-03  -1.21723523E-17
   2.40000011E-03  -1.47258018E-17
   2.45000003E-03  -1.77428852E-17
   2.49999994E-03  -2.12952156E-17
   2.55000009E-03  -2.54635739E-17
   2.60000001E-03  -3.03388673E-17
   2.64999992E-03  -3.60231300E-17
   2.70000007E-03  -4.26306091E-17
   2.74999999E-03  -5.02889714E-17
   2.79999990E-03  -5.91405286E-17
   2.85000005E-03  -6.93435434E-17
   2.89999996E-03  -8.10736924E-17
   2.95000011E-03  -9.45256079E-17
   3.00000003E-03  -1.09914436E-16
   3.04999994E-03  -1.27477651E-16
   3.10000009E-03  -1.47476774E-16
   3.15000000E-03  -1.70199320E-16
   3.19999992E-03  -1.95961019E-16
   3.25000007E-03  -2.25107741E-16
   3.29999998E-03  -2.58017909E-16
   3.34999990E-03  -2.95105008E-16
   3.40000005E-03  -3.36819872E-16
   3.44999996E-03  -3.83653541E-16
   3.50000011E-03  -4.36139832E-16
   3.55000002E-03  -4.94858565E-16
   3.59999994E-03  -5.60438397E-16
   3.65000009E-03  -6.33560316E-16
   3.70000000E-03  -7.14960606E-16
   3.74999992E-03  -8.05434312E-16
   3.80000006E-03  -9.05839374E-16
   3.84999998E-03  -1.01710043E-15
   3.89999989E-03  -1.14021223E-15
   3.94999981E-03  -1.27624392E-15
   4.00000019E-03  -1.42634292E-15
   4.05000011E-03  -1.59174071E-15
   4.10000002E-03  -1.77375624E-15
   4.14999994E-03  -1.97380064E-15
   4.19999985E-03  -2.19338208E-15
   4.25000023E-03  -2.43411138E-15
   4.30000015E-03  -2.69770634E-15
   4.35000006E-03  -2.98599803E-15
   4.39999998E-03  -3.30093525E-15
   4.44999989E-03  -3.64459219E-15
   4.49999981E-03  -4.01917091E-15
   4.55000019E-03  -4.42700923E-15
   4.60000010E-03  -4.87058641E-15
   4.65000002E-03  -5.35253079E-15
   4.69999993E-03  -5.87562234E-15
   4.74999985E-03  -6.44280365E-15
   4.80000023E-03  -7.05718248E-15
   4.85000014E-03  -7.72204109E-15
   4.90000006E-03  -8.44084171E-15
   4.94999997E-03  -9.21723466E-15
   4.99999989E-03  -1.00550629E-14
   5.04999980E-03  -1.09583676E-14
   5.10000018E-03  -1.19314035E-14
   5.15000010E-03  -1.29786352E-14
   5.20000001E-03  -1.41047503E-14
   5.24999993E-03  -1.53146691E-14
   5.29999984E-03  -1.66135450E-14
   5.35000023E-03  -1.80067736E-14
   5.40000014E-03  -1.94999995E-14
   5.45000006E-03  -2.10991316E-14
   5.49999997E-03  -2.28103398E-14
   5.54999989E-03  -2.46400631E-14
   5.59999980E-03  -2.65950219E-14
   5.65000018E-03  -2.86822195E-14
   5.70000010E-03  -3.09089471E-14
   5.75000001E-03  -3.32828010E-14
   5.79999993E-03  -3.58116823E-14
   5.84999984E-03  -3.85038003E-14
   5.90000022E-03  -4.13676729E-14
   5.95000014E-03  -4.44121431E-14
   6.00000005E-03  -4.76463893E-14
   6.04999997E-03  -5.10799255E-14
   6.09999988E-03  -5.47225839E-14
   6.14999980E-03  -5.85845527E-14
   6.20000018E-03  -6.26763588E-14
   6.25000009E-03  -6.70088849E-14
   6.30000001E-03  -7.15933660E-14
   6.34999992E-03  -7.64413828E-14
   6.39999984E-03  -8.15648682E-14
   6.45000022E-03  -8.69761416E-14
   6.50000013E-03  -9.26878542E-14
   6.55000005E-03  -9.87130232E-14
   6.59999996E-03  -1.05065032E-13
   6.64999988E-03  -1.11757642E-13
   6.69999979E-03  -1.18804936E-13
   6.75000018E-03  -1.26221367E-13
   6.80000009E-03  -1.34021754E-13
   6.85000001E-03  -1.42221236E-13
   6.89999992E-03  -1.50835331E-13
   6.94999984E-03  -1.59879881E-13
   7.00000022E-03  -1.69371055E-13
   7.05000013E-03  -1.79325345E-13
   7.10000005E-03  -1.89759571E-13
   7.14999996E-03  -2.00690823E-13
   7.19999988E-03  -2.12136556E-13
   7.24999979E-03  -2.24114469E-13
   7.30000017E-03  -2.36642493E-13
   7.35000009E-03  -2.49738896E-13
   7.40000000E-03  -2.63422151E-13
   7.44999992E-03  -2.77710933E-13
   7.49999983E-03  -2.92624161E-13
   7.55000021E-03  -3.08180971E-13
   7.60000013E-03  -3.24400554E-13
   7.65000004E-03  -3.41302344E-13
   7.69999996E-03  -3.58905885E-13
   7.74999987E-03  -3.77230826E-13
   7.79999979E-03  -3.96296819E-13
   7.84999970E-03  -4.16123624E-13
   7.89999962E-03  -4.36731028E-13
   7.95000046E-03  -4.58138735E-13
   8.00000038E-03  -4.80366506E-13
   8.05000030E-03  -5.03433937E-13
   8.10000021E-03  -5.27360382E-13
   8.15000013E-03  -5.52165410E-13
   8.20000004E-03  -5.77867886E-13
   8.24999996E-03  -6.04486892E-13
   8.29999987E-03  -6.32040861E-13
   8.34999979E-03  -6.60548222E-13
   8.39999970E-03  -6.90026758E-13
   8.44999962E-03  -7.20494031E-13
   8.50000046E-03  -7.51966957E-13
   8.55000038E-03  -7.84462176E-13
   8.60000029E-03  -8.17995411E-13
   8.65000021E-03  -8.52581948E-13
   8.70000012E-03  -8.88236479E-13
   8.75000004E-03  -9.24972664E-13
   8.79999995E-03  -9.62803622E-13
   8.84999987E-03  -1.00174133E-12
   8.89999978E-03  -1.04179707E-12
   8.94999970E-03  -1.08298093E-12
   8.99999961E-03  -1.12530211E-12
   9.05000046E-03  -1.16876832E-12
   9.10000037E-03  -1.21338638E-12
   9.15000029E-03  -1.25916161E-12
   9.20000020E-03  -1.30609813E-12
   9.25000012E-03  -1.35419844E-12
   9.30000003E-03  -1.40346361E-12
   9.34999995E-03  -1.45389300E-12
   9.39999986E-03  -1.50548432E-12
   9.44999978E-03  -1.55823369E-12
   9.49999969E-03  -1.61213523E-12
   9.54999961E-03  -1.66718082E-12
   9.60000046E-03  -1.72336071E-12
   9.65000037E-03  -1.78066307E-12
   9.70000029E-03  -1.83907338E-12
   9.75000020E-03  -1.89857526E-12
   9.80000012E-03  -1.95914964E-12
   9.85000003E-03  -2.02077526E-12
   9.89999995E-03  -2.08342805E-12
   9.94999986E-03  -2.14708112E-12
   9.99999978E-03  -2.21170543E-12
   1.00499997E-02  -2.27726800E-12
   1.00999996E-02  -2.34373393E-12
   1.01500005E-02  -2.41106505E-12
   1.02000004E-02  -2.47921974E-12
   1.02500003E-02  -2.54815309E-12
   1.03000002E-02  -2.61781742E-12
   1.03500001E-02  -2.68816089E-12
   1.04000000E-02  -2.75912843E-12
   1.04499999E-02  -2.83066149E-12
   1.04999999E-02  -2.90269805E-12
   1.05499998E-02  -2.97517132E-12
   1.05999997E-02  -3.04801128E-12
   1.06499996E-02  -3.12114397E-12
   1.07000005E-02  -3.19449111E-12
   1.07500004E-02  -3.26797075E-12
   1.08000003E-02  -3.34149592E-12
   1.08500002E-02  -3.41497598E-12
   1.09000001E-02  -3.48831619E-12
   1.09500000E-02  -3.56141614E-12
   1.09999999E-02  -3.63417174E-12
   1.10499999E-02  -3.70647350E-12
   1.10999998E-02  -3.77820822E-12
   1.11499997E-02  -3.84925815E-12
   1.11999996E-02  -3.91949971E-12
   1.12500004E-02  -3.98880538E-12
   1.13000004E-02  -4.05704203E-12
   1.13500003E-02  -4.12407044E-12
   1.14000002E-02  -4.18974924E-12
   1.14500001E-02  -4.25393054E-12
   1.15000000E-02  -4.31646125E-12
   1.15499999E-02  -4.37718221E-12
   1.15999999E-02  -4.43593122E-12
   1.16499998E-02  -4.49253959E-12
   1.16999997E-02  -4.54683513E-12
   1.17499996E-02  -4.59863744E-12
   1.18000004E-02  -4.64776394E-12
   1.18500004E-02  -4.69402555E-12
   1.19000003E-02  -4.73722754E-12
   1.19500002E-02  -4.77717085E-12
   1.20000001E-02  -4.81365251E-12
   1.20500000E-02  -4.84646394E-12
   1.20999999E-02  -4.87539089E-12
   1.21499998E-02  -4.90021305E-12
   1.21999998E-02  -4.92070924E-12
   1.22499997E-02  -4.93665005E-12
   1.22999996E-02  -4.94780085E-12
   1.23500004E-02  -4.95392616E-12
   1.24000004E-02  -4.95478355E-12
   1.24500003E-02  -4.95012711E-12
   1.25000002E-02  -4.93970706E-12
   1.25500001E-02  -4.92326796E-12
   1.26000000E-02  -4.90055089E-12
   1.26499999E-02  -4.87129564E-12
   1.26999998E-02  -4.83523551E-12
   1.27499998E-02  -4.79210248E-12
   1.27999997E-02  -4.74162506E-12
   1.28499996E-02  -4.68352744E-12
   1.29000004E-02  -4.61753292E-12
   1.29500004E-02  -4.54336091E-12
   1.30000003E-02  -4.46072996E-12
   1.30500002E-02  -4.36935601E-12
   1.31000001E-02  -4.26895151E-12
   1.31500000E-02  -4.15922938E-12
   1.31999999E-02  -4.03990253E-12
   1.32499998E-02  -3.91068254E-12
   1.32999998E-02  -3.77127973E-12
   1.33499997E-02  -3.62140483E-12
   1.33999996E-02  -3.46076813E-12
   1.34500004E-02  -3.28908081E-12
   1.35000004E-02  -3.10605491E-12
   1.35500003E-02  -2.91140549E-12
   1.36000002E-02  -2.70485110E-12
   1.36500001E-02  -2.48610659E-12
   1.37000000E-02  -2.25489245E-12
   1.37499999E-02  -2.01093699E-12
   1.37999998E-02  -1.75396839E-12
   1.38499998E-02  -1.48371755E-12
   1.38999997E-02  -1.19992254E-12
   1.39499996E-02  -9.02324331E-13
   1.40000004E-02  -5.90671826E-13
   1.40500003E-02  -2.64720917E-13
   1.41000003E-02   7.57678425E-14
   1.41500002E-02   4.31025848E-13
   1.42000001E-02   8.01275712E-13
   1.42500000E-02   1.18672975E-12
   1.42999999E-02   1.58759464E-12
   1.43499998E-02   2.00406597E-12
   1.43999998E-02   2.43632588E-12
   1.44499997E-02   2.88454482E-12
   1.44999996E-02   3.34888606E-12
   1.45500004E-02   3.82949835E-12
   1.46000003E-02   4.32651137E-12
   1.46500003E-02   4.84004807E-12
   1.47000002E-02   5.37021512E-12
   1.47500001E-02   5.91710275E-12
   1.48000000E-02   6.48078466E-12
   1.48499999E-02   7.06131768E-12
   1.48999998E-02   7.65874083E-12
   1.49499997E-02   8.27307493E-12
   1.49999997E-02   8.90432346E-12
   1.50499996E-02   9.55246385E-12
   1.51000004E-02   1.02174545E-11
   1.51500003E-02   1.08992364E-11
   1.52000003E-02   1.15977254E-11
   1.52500002E-02   1.23128114E-11
   1.53000001E-02   1.30443625E-11
   1.53500000E-02   1.37922226E-11
   1.53999999E-02   1.45562087E-11
   1.54499998E-02   1.53361091E-11
   1.54999997E-02   1.61316880E-11
   1.55499997E-02   1.69426782E-11
   1.55999996E-02   1.77687899E-11
   1.56500004E-02   1.86096936E-11
   1.56999994E-02   1.94650338E-11
   1.57500003E-02   2.03344251E-11
   1.57999992E-02   2.12174479E-11
   1.58500001E-02   2.21136460E-11
   1.59000009E-02   2.30225370E-11
   1.59499999E-02   2.39435954E-11
   1.60000008E-02   2.48762677E-11
   1.60499997E-02   2.58199573E-11
   1.61000006E-02   2.67740326E-11
   1.61499996E-02   2.77378242E-11
   1.62000004E-02   2.87106259E-11
   1.62499994E-02   2.96916901E-11
   1.63000003E-02   3.06802292E-11
   1.63499992E-02   3.16754158E-11
   1.64000001E-02   3.26763790E-11
   1.64500009E-02   3.36822063E-11
   1.64999999E-02   3.46919472E-11
   1.65500008E-02   3.57045990E-11
   1.65999997E-02   3.67191208E-11
   1.66500006E-02   3.77344302E-11
   1.66999996E-02   3.87493856E-11
   1.67500004E-02   3.97628180E-11
   1.67999994E-02   4.07734992E-11
   1.68500002E-02   4.17801627E-11
   1.68999992E-02   4.27814936E-11
   1.69500001E-02   4.37761286E-11
   1.70000009E-02   4.47626484E-11
   1.70499999E-02   4.57395996E-11
   1.71000008E-02   4.67054728E-11
   1.71499997E-02   4.76587173E-11
   1.72000006E-02   4.85977265E-11
   1.72499996E-02   4.95208388E-11
   1.73000004E-02   5.04263645E-11
   1.73499994E-02   5.13125445E-11
   1.74000002E-02   5.21775852E-11
   1.74499992E-02   5.30196338E-11
   1.75000001E-02   5.38367961E-11
   1.75500009E-02   5.46271223E-11
   1.75999999E-02   5.53886208E-11
   1.76500008E-02   5.61192585E-11
   1.76999997E-02   5.68169366E-11
   1.77500006E-02   5.74795211E-11
   1.77999996E-02   5.81048300E-11
   1.78500004E-02   5.86906287E-11
   1.78999994E-02   5.92346519E-11
   1.79500002E-02   5.97345715E-11
   1.79999992E-02   6.01880282E-11
   1.80500001E-02   6.05926004E-11
   1.81000009E-02   6.09458525E-11
   1.81499999E-02   6.12452936E-11
   1.82000007E-02   6.14883769E-11
   1.82499997E-02   6.16725213E-11
   1.83000006E-02   6.17951385E-11
   1.83499996E-02   6.18535709E-11
   1.84000004E-02   6.18451262E-11
   1.84499994E-02   6.17670914E-11
   1.85000002E-02   6.16166979E-11
   1.85499992E-02   6.13911699E-11
   1.86000001E-02   6.10877113E-11
   1.86500009E-02   6.07034562E-11
   1.86999999E-02   6.02355318E-11
   1.87500007E-02   5.96810587E-11
   1.87999997E-02   5.90371016E-11
   1.88500006E-02   5.83007115E-11
   1.88999996E-02   5.74689393E-11
   1.89500004E-02   5.65388084E-11
   1.89999994E-02   5.55073418E-11
   1.90500002E-02   5.43715385E-11
   1.90999992E-02   5.31283732E-11
   1.91500001E-02   5.17748379E-11
   1.92000009E-02   5.03079106E-11
   1.92499999E-02   4.87245765E-11
   1.93000007E-02   4.70218066E-11
   1.93499997E-02   4.51965722E-11
   1.94000006E-02   4.32458756E-11
   1.94499996E-02   4.11667228E-11
   1.95000004E-02   3.89561230E-11
   1.95499994E-02   3.66111065E-11
   1.96000002E-02   3.41287276E-11
   1.96499992E-02   3.15060443E-11
   1.97000001E-02   2.87401700E-11
   1.97500009E-02   2.58282163E-11
   1.97999999E-02   2.27673644E-11
   1.98500007E-02   1.95548317E-11
   1.98999997E-02   1.61878497E-11
   1.99500006E-02   1.26637130E-11
   1.99999996E-02   8.97976919E-12
   2.00500004E-02   5.13339891E-12
   2.00999994E-02   1.12206414E-12
   2.01500002E-02  -3.05671417E-12
   2.01999992E-02  -7.40535064E-12
   2.02500001E-02  -1.19261797E-11
   2.03000009E-02  -1.66214958E-11
   2.03499999E-02  -2.14934858E-11
   2.04000007E-02  -2.65442408E-11
   2.04499997E-02  -3.17757730E-11
   2.05000006E-02  -3.71900045E-11
   2.05499995E-02  -4.27887621E-11
   2.06000004E-02  -4.85737700E-11
   2.06499994E-02  -5.45466276E-11
   2.07000002E-02  -6.07088269E-11
   2.07499992E-02  -6.70617312E-11
   2.08000001E-02  -7.36066000E-11
   2.08500009E-02  -8.03445713E-11
   2.08999999E-02  -8.72766234E-11
   2.09500007E-02  -9.44035961E-11
   2.09999997E-02  -1.01726225E-10
   2.10500006E-02  -1.09245051E-10
   2.10999995E-02  -1.16960483E-10
   2.11500004E-02  -1.24872751E-10
   2.11999994E-02  -1.32981931E-10
   2.12500002E-02  -1.41287912E-10
   2.12999992E-02  -1.49790444E-10
   2.13500001E-02  -1.58489083E-10
   2.14000009E-02  -1.67383163E-10
   2.14499999E-02  -1.76471837E-10
   2.15000007E-02  -1.85754134E-10
   2.15499997E-02  -1.95228791E-10
   2.16000006E-02  -2.04894393E-10
   2.16499995E-02  -2.14749232E-10
   2.17000004E-02  -2.24791477E-10
   2.17499994E-02  -2.35019032E-10
   2.18000002E-02  -2.45429593E-10
   2.18499992E-02  -2.56020621E-10
   2.19000001E-02  -2.66789257E-10
   2.19500009E-02  -2.77732476E-10
   2.19999999E-02  -2.88847030E-10
   2.20500007E-02  -3.00129366E-10
   2.20999997E-02  -3.11575682E-10
   2.21500006E-02  -3.23181926E-10
   2.21999995E-02  -3.34943795E-10
   2.22500004E-02  -3.46856655E-10
   2.22999994E-02  -3.58915647E-10
   2.23500002E-02  -3.71115638E-10
   2.23999992E-02  -3.83451187E-10
   2.24500000E-02  -3.95916550E-10
   2.25000009E-02  -4.08505757E-10
   2.25499999E-02  -4.21212426E-10
   2.26000007E-02  -4.34030006E-10
   2.26499997E-02  -4.46951587E-10
   2.27000006E-02  -4.59969951E-10
   2.27499995E-02  -4.73077522E-10
   2.28000004E-02  -4.86266472E-10
   2.28499994E-02  -4.99528696E-10
   2.29000002E-02  -5.12855647E-10
   2.29499992E-02  -5.26238553E-10
   2.30000000E-02  -5.39668366E-10
   2.30500009E-02  -5.53135593E-10
   2.30999999E-02  -5.66630409E-10
   2.31500007E-02  -5.80142878E-10
   2.31999997E-02  -5.93662453E-10
   2.32500006E-02  -6.07178419E-10
   2.32999995E-02  -6.20679730E-10
   2.33500004E-02  -6.34154951E-10
   2.33999994E-02  -6.47592369E-10
   2.34500002E-02  -6.60979826E-10
   2.34999992E-02  -6.74304945E-10
   2.35500000E-02  -6.87555068E-10
   2.36000009E-02  -7.00717040E-10
   2.36499999E-02  -7.13777537E-10
   2.37000007E-02  -7.26722793E-10
   2.37499997E-02  -7.39538764E-10
   2.38000005E-02  -7.52211071E-10
   2.38499995E-02  -7.64724950E-10
   2.39000004E-02  -7.77065468E-10
   2.39499994E-02  -7.89217247E-10
   2.40000002E-02  -8.01164746E-10
   2.40499992E-02  -8.12891920E-10
   2.41000000E-02  -8.24382507E-10
   2.41500009E-02  -8.35619962E-10
   2.41999999E-02  -8.46587356E-10
   2.42500007E-02  -8.57267701E-10
   2.42999997E-02  -8.67643457E-10
   2.43500005E-02  -8.77696971E-10
   2.43999995E-02  -8.87410090E-10
   2.44500004E-02  -8.96764607E-10
   2.44999994E-02  -9.05742037E-10
   2.45500002E-02  -9.14323672E-10
   2.45999992E-02  -9.22490306E-10
   2.46500000E-02  -9.30222788E-10
   2.47000009E-02  -9.37501521E-10
   2.47499999E-02  -9.44306966E-10
   2.48000007E-02  -9.50619139E-10
   2.48499997E-02  -9.56417723E-10
   2.49000005E-02  -9.61682622E-10
   2.49499995E-02  -9.66393077E-10
   2.50000004E-02  -9.70528546E-10
   2.50499994E-02  -9.74068270E-10
   2.51000002E-02  -9.76991155E-10
   2.51499992E-02  -9.79275994E-10
   2.52000000E-02  -9.80901804E-10
   2.52500009E-02  -9.81847048E-10
   2.52999999E-02  -9.82090187E-10
   2.53500007E-02  -9.81609682E-10
   2.53999997E-02  -9.80384107E-10
   2.54500005E-02  -9.78391701E-10
   2.54999995E-02  -9.75610592E-10
   2.55500004E-02  -9.72019243E-10
   2.55999994E-02  -9.67595670E-10
   2.56500002E-02  -9.62318447E-10
   2.56999992E-02  -9.56165591E-10
   2.57500000E-02  -9.49115675E-10
   2.58000009E-02  -9.41146716E-10
   2.58499999E-02  -9.32237509E-10
   2.59000007E-02  -9.22366516E-10
   2.59499997E-02  -9.11512477E-10
   2.60000005E-02  -8.99653962E-10
   2.60499995E-02  -8.86769935E-10
   2.61000004E-02  -8.72839634E-10
   2.61499994E-02  -8.57842297E-10
   2.62000002E-02  -8.41757553E-10
   2.62499992E-02  -8.24565249E-10
   2.63000000E-02  -8.06245126E-10
   2.63500009E-02  -7.86777477E-10
   2.63999999E-02  -7.66142982E-10
   2.64500007E-02  -7.44322659E-10
   2.64999997E-02  -7.21297522E-10
   2.65500005E-02  -6.97049141E-10
   2.65999995E-02  -6.71559530E-10
   2.66500004E-02  -6.44811038E-10
   2.66999993E-02  -6.16786622E-10
   2.67500002E-02  -5.87469517E-10
   2.67999992E-02  -5.56843516E-10
   2.68500000E-02  -5.24892740E-10
   2.69000009E-02  -4.91602092E-10
   2.69499999E-02  -4.56956917E-10
   2.70000007E-02  -4.20943169E-10
   2.70499997E-02  -3.83547388E-10
   2.71000005E-02  -3.44756751E-10
   2.71499995E-02  -3.04559017E-10
   2.72000004E-02  -2.62942335E-10
   2.72499993E-02  -2.19896185E-10
   2.73000002E-02  -1.75410797E-10
   2.73499992E-02  -1.29476679E-10
   2.74000000E-02  -8.20849222E-11
   2.74500009E-02  -3.32278614E-11
   2.74999999E-02   1.71009717E-11
   2.75500007E-02   6.89079765E-11
   2.75999997E-02   1.22198168E-10
   2.76500005E-02   1.76975740E-10
   2.76999995E-02   2.33244118E-10
   2.77500004E-02   2.91005553E-10
   2.77999993E-02   3.50261375E-10
   2.78500002E-02   4.11012002E-10
   2.78999992E-02   4.73256712E-10
   2.79500000E-02   5.36994005E-10
   2.80000009E-02   6.02220829E-10
   2.80499998E-02   6.68933131E-10
   2.81000007E-02   7.37125805E-10
   2.81499997E-02   8.06792577E-10
   2.82000005E-02   8.77926287E-10
   2.82499995E-02   9.50518109E-10
   2.83000004E-02   1.02455822E-09
   2.83499993E-02   1.10003540E-09
   2.84000002E-02   1.17693721E-09
   2.84499992E-02   1.25524990E-09
   2.85000000E-02   1.33495848E-09
   2.85500009E-02   1.41604661E-09
   2.85999998E-02   1.49849644E-09
   2.86500007E-02   1.58228897E-09
   2.86999997E-02   1.66740355E-09
   2.87500005E-02   1.75381831E-09
   2.87999995E-02   1.84150983E-09
   2.88500004E-02   1.93045313E-09
   2.88999993E-02   2.02062189E-09
   2.89500002E-02   2.11198814E-09
   2.89999992E-02   2.20452279E-09
   2.90500000E-02   2.29819475E-09
   2.91000009E-02   2.39297138E-09
   2.91499998E-02   2.48881893E-09
   2.92000007E-02   2.58570187E-09
   2.92499997E-02   2.68358291E-09
   2.93000005E-02   2.78242340E-09
   2.93499995E-02   2.88218316E-09
   2.94000003E-02   2.98281955E-09
   2.94499993E-02   3.08428949E-09
   2.95000002E-02   3.18654769E-09
   2.95499992E-02   3.28954708E-09
   2.96000000E-02   3.39323902E-09
   2.96500009E-02   3.49757379E-09
   2.96999998E-02   3.60249897E-09
   2.97500007E-02   3.70796149E-09
   2.97999997E-02   3.81390564E-09
   2.98500005E-02   3.92027522E-09
   2.98999995E-02   4.02701117E-09
   2.99500003E-02   4.13405310E-09
   2.99999993E-02   4.24133972E-09
   3.00500002E-02   4.34880754E-09
   3.00999992E-02   4.45639126E-09
   3.01500000E-02   4.56402338E-09
   3.02000009E-02   4.67163597E-09
   3.02499998E-02   4.77915929E-09
   3.03000007E-02   4.88652097E-09
   3.03499997E-02   4.99364816E-09
   3.04000005E-02   5.10046583E-09
   3.04499995E-02   5.20689669E-09
   3.05000003E-02   5.31286348E-09
   3.05499993E-02   5.41828626E-09
   3.06000002E-02   5.52308332E-09
   3.06499992E-02   5.62717251E-09
   3.07000000E-02   5.73046943E-09
   3.07500008E-02   5.83288839E-09
   3.07999998E-02   5.93434235E-09
   3.08500007E-02   6.03474248E-09
   3.08999997E-02   6.13399820E-09
   3.09500005E-02   6.23201890E-09
   3.09999995E-02   6.32871178E-09
   3.10500003E-02   6.42398312E-09
   3.10999993E-02   6.51773613E-09
   3.11500002E-02   6.60987576E-09
   3.11999992E-02   6.70030342E-09
   3.12500000E-02   6.78892054E-09
   3.13000008E-02   6.87562673E-09
   3.13500017E-02   6.96031988E-09
   3.13999988E-02   7.04289826E-09
   3.14499997E-02   7.12325932E-09
   3.15000005E-02   7.20129822E-09
   3.15500014E-02   7.27691019E-09
   3.15999985E-02   7.34998817E-09
   3.16499993E-02   7.42042561E-09
   3.17000002E-02   7.48811502E-09
   3.17500010E-02   7.55294849E-09
   3.18000019E-02   7.61481544E-09
   3.18499990E-02   7.67360842E-09
   3.18999998E-02   7.72921460E-09
   3.19500007E-02   7.78152476E-09
   3.20000015E-02   7.83042786E-09
   3.20499986E-02   7.87581111E-09
   3.20999995E-02   7.91756349E-09
   3.21500003E-02   7.95557220E-09
   3.22000012E-02   7.98972621E-09
   3.22499983E-02   8.01991185E-09
   3.22999991E-02   8.04601807E-09
   3.23500000E-02   8.06793032E-09
   3.24000008E-02   8.08553757E-09
   3.24500017E-02   8.09872791E-09
   3.24999988E-02   8.10738943E-09
   3.25499997E-02   8.11141021E-09
   3.26000005E-02   8.11067835E-09
   3.26500013E-02   8.10508283E-09
   3.26999985E-02   8.09451439E-09
   3.27499993E-02   8.07886380E-09
   3.28000002E-02   8.05802181E-09
   3.28500010E-02   8.03187916E-09
   3.29000019E-02   8.00033018E-09
   3.29499990E-02   7.96326827E-09
   3.29999998E-02   7.92058774E-09
   3.30500007E-02   7.87218735E-09
   3.31000015E-02   7.81796139E-09
   3.31499986E-02   7.75780862E-09
   3.31999995E-02   7.69163133E-09
   3.32500003E-02   7.61932739E-09
   3.33000012E-02   7.54080265E-09
   3.33499983E-02   7.45596029E-09
   3.33999991E-02   7.36470840E-09
   3.34500000E-02   7.26695459E-09
   3.35000008E-02   7.16261050E-09
   3.35500017E-02   7.05158820E-09
   3.35999988E-02   6.93380242E-09
   3.36499996E-02   6.80916967E-09
   3.37000005E-02   6.67760958E-09
   3.37500013E-02   6.53904397E-09
   3.37999985E-02   6.39339648E-09
   3.38499993E-02   6.24059560E-09
   3.39000002E-02   6.08057027E-09
   3.39500010E-02   5.91325344E-09
   3.40000018E-02   5.73858117E-09
   3.40499990E-02   5.55649127E-09
   3.40999998E-02   5.36692601E-09
   3.41500007E-02   5.16982945E-09
   3.42000015E-02   4.96515140E-09
   3.42499986E-02   4.75284390E-09
   3.42999995E-02   4.53286075E-09
   3.43500003E-02   4.30516200E-09
   3.44000012E-02   4.06971035E-09
   3.44499983E-02   3.82647336E-09
   3.44999991E-02   3.57542174E-09
   3.45500000E-02   3.31653016E-09
   3.46000008E-02   3.04977621E-09
   3.46500017E-02   2.77514323E-09
   3.46999988E-02   2.49261944E-09
   3.47499996E-02   2.20219554E-09
   3.48000005E-02   1.90386773E-09
   3.48500013E-02   1.59763824E-09
   3.48999985E-02   1.28351185E-09
   3.49499993E-02   9.61497659E-10
   3.50000001E-02   6.31612096E-10
   3.50500010E-02   2.93876395E-10
   3.51000018E-02  -5.16861484E-11
   3.51499990E-02  -4.05045497E-10
   3.51999998E-02  -7.66164854E-10
   3.52500007E-02  -1.13500398E-09
   3.53000015E-02  -1.51151558E-09
   3.53499986E-02  -1.89564897E-09
   3.53999995E-02  -2.28734809E-09
   3.54500003E-02  -2.68654787E-09
   3.55000012E-02  -3.09318127E-09
   3.55499983E-02  -3.50717499E-09
   3.55999991E-02  -3.92844735E-09
   3.56500000E-02  -4.35691483E-09
   3.57000008E-02  -4.79248596E-09
   3.57500017E-02  -5.23506172E-09
   3.57999988E-02  -5.68453817E-09
   3.58499996E-02  -6.14080609E-09
   3.59000005E-02  -6.60375088E-09
   3.59500013E-02  -7.07324865E-09
   3.59999985E-02  -7.54917284E-09
   3.60499993E-02  -8.03138889E-09
   3.61000001E-02  -8.51975468E-09
   3.61500010E-02  -9.01412545E-09
   3.62000018E-02  -9.51434576E-09
   3.62499990E-02  -1.00202557E-08
   3.62999998E-02  -1.05316884E-08
   3.63500006E-02  -1.10484724E-08
   3.64000015E-02  -1.15704273E-08
   3.64499986E-02  -1.20973676E-08
   3.64999995E-02  -1.26291004E-08
   3.65500003E-02  -1.31654279E-08
   3.66000012E-02  -1.37061429E-08
   3.66499983E-02  -1.42510368E-08
   3.66999991E-02  -1.47998875E-08
   3.67500000E-02  -1.53524713E-08
   3.68000008E-02  -1.59085580E-08
   3.68500017E-02  -1.64679079E-08
   3.68999988E-02  -1.70302759E-08
   3.69499996E-02  -1.75954114E-08
   3.70000005E-02  -1.81630568E-08
   3.70500013E-02  -1.87329494E-08
   3.70999984E-02  -1.93048173E-08
   3.71499993E-02  -1.98783852E-08
   3.72000001E-02  -2.04533688E-08
   3.72500010E-02  -2.10294804E-08
   3.73000018E-02  -2.16064233E-08
   3.73499990E-02  -2.21838938E-08
   3.73999998E-02  -2.27615882E-08
   3.74500006E-02  -2.33391919E-08
   3.75000015E-02  -2.39163818E-08
   3.75499986E-02  -2.44928344E-08
   3.75999995E-02  -2.50682195E-08
   3.76500003E-02  -2.56421995E-08
   3.77000012E-02  -2.62144297E-08
   3.77499983E-02  -2.67845639E-08
   3.77999991E-02  -2.73522449E-08
   3.78500000E-02  -2.79171175E-08
   3.79000008E-02  -2.84788140E-08
   3.79500017E-02  -2.90369666E-08
   3.79999988E-02  -2.95912006E-08
   3.80499996E-02  -3.01411376E-08
   3.81000005E-02  -3.06863903E-08
   3.81500013E-02  -3.12265662E-08
   3.81999984E-02  -3.17612816E-08
   3.82499993E-02  -3.22901315E-08
   3.83000001E-02  -3.28127143E-08
   3.83500010E-02  -3.33286287E-08
   3.84000018E-02  -3.38374591E-08
   3.84499989E-02  -3.43387967E-08
   3.84999998E-02  -3.48322153E-08
   3.85500006E-02  -3.53173029E-08
   3.86000015E-02  -3.57936294E-08
   3.86499986E-02  -3.62607722E-08
   3.86999995E-02  -3.67183013E-08
   3.87500003E-02  -3.71657762E-08
   3.88000011E-02  -3.76027707E-08
   3.88499983E-02  -3.80288441E-08
   3.88999991E-02  -3.84435523E-08
   3.89500000E-02  -3.88464549E-08
   3.90000008E-02  -3.92371113E-08
   3.90500017E-02  -3.96150774E-08
   3.90999988E-02  -3.99799056E-08
   3.91499996E-02  -4.03311482E-08
   3.92000005E-02  -4.06683540E-08
   3.92500013E-02  -4.09910790E-08
   3.92999984E-02  -4.12988754E-08
   3.93499993E-02  -4.15912851E-08
   3.94000001E-02  -4.18678674E-08
   3.94500010E-02  -4.21281676E-08
   3.95000018E-02  -4.23717417E-08
   3.95499989E-02  -4.25981419E-08
   3.95999998E-02  -4.28069171E-08
   3.96500006E-02  -4.29976303E-08
   3.97000015E-02  -4.31698339E-08
   3.97499986E-02  -4.33230838E-08
   3.97999994E-02  -4.34569465E-08
   3.98500003E-02  -4.35709886E-08
   3.99000011E-02  -4.36647731E-08
   3.99499983E-02  -4.37378631E-08
   3.99999991E-02  -4.37898393E-08
   4.00500000E-02  -4.38202719E-08
   4.01000008E-02  -4.38287415E-08
   4.01500016E-02  -4.38148398E-08
   4.01999988E-02  -4.37781473E-08
   4.02499996E-02  -4.37182592E-08
   4.03000005E-02  -4.36347776E-08
   4.03500013E-02  -4.35273009E-08
   4.03999984E-02  -4.33954490E-08
   4.04499993E-02  -4.32388312E-08
   4.05000001E-02  -4.30570672E-08
   4.05500010E-02  -4.28497842E-08
   4.06000018E-02  -4.26166231E-08
   4.06499989E-02  -4.23572217E-08
   4.06999998E-02  -4.20712354E-08
   4.07500006E-02  -4.17583159E-08
   4.08000015E-02  -4.14181400E-08
   4.08499986E-02  -4.10503738E-08
   4.08999994E-02  -4.06547009E-08
   4.09500003E-02  -4.02308125E-08
   4.10000011E-02  -3.97784099E-08
   4.10499983E-02  -3.92972090E-08
   4.10999991E-02  -3.87869363E-08
   4.11499999E-02  -3.82473075E-08
   4.12000008E-02  -3.76780775E-08
   4.12500016E-02  -3.70790012E-08
   4.12999988E-02  -3.64498334E-08
   4.13499996E-02  -3.57903538E-08
   4.14000005E-02  -3.51003457E-08
   4.14500013E-02  -3.43796209E-08
   4.14999984E-02  -3.36279982E-08
   4.15499993E-02  -3.28452856E-08
   4.16000001E-02  -3.20313234E-08
   4.16500010E-02  -3.11859658E-08
   4.17000018E-02  -3.03090850E-08
   4.17499989E-02  -2.94005513E-08
   4.17999998E-02  -2.84602546E-08
   4.18500006E-02  -2.74881113E-08
   4.19000015E-02  -2.64840434E-08
   4.19499986E-02  -2.54479957E-08
   4.19999994E-02  -2.43799132E-08
   4.20500003E-02  -2.32797657E-08
   4.21000011E-02  -2.21475354E-08
   4.21499982E-02  -2.09832223E-08
   4.21999991E-02  -1.97868495E-08
   4.22499999E-02  -1.85584437E-08
   4.23000008E-02  -1.72980616E-08
   4.23500016E-02  -1.60057709E-08
   4.23999988E-02  -1.46816506E-08
   4.24499996E-02  -1.33258053E-08
   4.25000004E-02  -1.19383614E-08
   4.25500013E-02  -1.05194564E-08
   4.25999984E-02  -9.06924225E-09
   4.26499993E-02  -7.58790186E-09
   4.27000001E-02  -6.07563377E-09
   4.27500010E-02  -4.53263915E-09
   4.28000018E-02  -2.95914826E-09