   0.00000000       0.00000000    
   4.99999987E-05   0.00000000    
   9.99999975E-05   0.00000000    
   1.50000007E-04   0.00000000    
   1.99999995E-04   7.71460557E-25
   2.50000012E-04   7.72397457E-24
   3.00000014E-04   4.18046455E-23
   3.49999988E-04   1.63094670E-22
   3.99999990E-04   5.14618119E-22
   4.49999992E-04   1.39585396E-21
   5.00000024E-04   3.37754586E-21
   5.49999997E-04   7.47163005E-21
   6.00000028E-04   1.53724408E-20
   6.50000002E-04   2.97878531E-20
   6.99999975E-04   5.48815596E-20
   7.50000007E-04   9.68504356E-20
   7.99999980E-04   1.64663600E-19
   8.50000011E-04   2.70993261E-19
   8.99999985E-04   4.33369151E-19
   9.50000016E-04   6.75593923E-19
   1.00000005E-03   1.02945667E-18
   1.04999996E-03   1.53678836E-18
   1.09999999E-03   2.25190471E-18
   1.15000003E-03   3.24448774E-18
   1.20000006E-03   4.60295322E-18
   1.24999997E-03   6.43836981E-18
   1.30000000E-03   8.88898212E-18
   1.35000004E-03   1.21254057E-17
   1.39999995E-03   1.63565718E-17
   1.44999998E-03   2.18364713E-17
   1.50000001E-03   2.88717996E-17
   1.55000004E-03   3.78305693E-17
   1.59999996E-03   4.91517900E-17
   1.64999999E-03   6.33562844E-17
   1.70000002E-03   8.10587369E-17
   1.75000005E-03   1.02981128E-16
   1.79999997E-03   1.29967558E-16
   1.85000000E-03   1.63000638E-16
   1.90000003E-03   2.03219562E-16
   1.94999995E-03   2.51940130E-16
   2.00000009E-03   3.10676200E-16
   2.05000001E-03   3.81163715E-16
   2.09999993E-03   4.65386689E-16
   2.15000007E-03   5.65605298E-16
   2.19999999E-03   6.84386898E-16
   2.24999990E-03   8.24639249E-16
   2.30000005E-03   9.89646402E-16
   2.34999997E-03   1.18310788E-15
   2.40000011E-03   1.40918076E-15
   2.45000003E-03   1.67252511E-15
   2.49999994E-03   1.97835281E-15
   2.55000009E-03   2.33247929E-15
   2.60000001E-03   2.74138021E-15
   2.64999992E-03   3.21225175E-15
   2.70000007E-03   3.75307339E-15
   2.74999999E-03   4.37267842E-15
   2.79999990E-03   5.08082676E-15
   2.85000005E-03   5.88828294E-15
   2.89999996E-03   6.80689822E-15
   2.95000011E-03   7.84969742E-15
   3.00000003E-03   9.03097804E-15
   3.04999994E-03   1.03664034E-14
   3.10000009E-03   1.18731065E-14
   3.15000000E-03   1.35698109E-14
   3.19999992E-03   1.54769420E-14
   3.25000007E-03   1.76167505E-14
   3.29999998E-03   2.00134421E-14
   3.34999990E-03   2.26933188E-14
   3.40000005E-03   2.56849206E-14
   3.44999996E-03   2.90191861E-14
   3.50000011E-03   3.27296140E-14
   3.55000002E-03   3.68524113E-14
   3.59999994E-03   4.14267077E-14
   3.65000009E-03   4.64946888E-14
   3.70000000E-03   5.21018572E-14
   3.74999992E-03   5.82971781E-14
   3.80000006E-03   6.51333168E-14
   3.84999998E-03   7.26668820E-14
   3.89999989E-03   8.09586027E-14
   3.94999981E-03   9.00736124E-14
   4.00000019E-03   1.00081734E-13
   4.05000011E-03   1.11057654E-13
   4.10000002E-03   1.23081273E-13
   4.14999994E-03   1.36237985E-13
   4.19999985E-03   1.50618911E-13
   4.25000023E-03   1.66321302E-13
   4.30000015E-03   1.83448769E-13
   4.35000006E-03   2.02111643E-13
   4.39999998E-03   2.22427423E-13
   4.44999989E-03   2.44521038E-13
   4.49999981E-03   2.68525084E-13
   4.55000019E-03   2.94580468E-13
   4.60000010E-03   3.22836620E-13
   4.65000002E-03   3.53451968E-13
   4.69999993E-03   3.86594457E-13
   4.74999985E-03   4.22441812E-13
   4.80000023E-03   4.61181982E-13
   4.85000014E-03   5.03013863E-13
   4.90000006E-03   5.48147465E-13
   4.94999997E-03   5.96804398E-13
   4.99999989E-03   6.49218689E-13
   5.04999980E-03   7.05637209E-13
   5.10000018E-03   7.66319842E-13
   5.15000010E-03   8.31540511E-13
   5.20000001E-03   9.01587398E-13
   5.24999993E-03   9.76763592E-13
   5.29999984E-03   1.05738801E-12
   5.35000023E-03   1.14379534E-12
   5.40000014E-03   1.23633731E-12
   5.45000006E-03   1.33538287E-12
   5.49999997E-03   1.44131929E-12
   5.54999989E-03   1.55455173E-12
   5.59999980E-03   1.67550555E-12
   5.65000018E-03   1.80462557E-12
   5.70000010E-03   1.94237768E-12
   5.75000001E-03   2.08924956E-12
   5.79999993E-03   2.24574959E-12
   5.84999984E-03   2.41240990E-12
   5.90000022E-03   2.58978689E-12
   5.95000014E-03   2.77846040E-12
   6.00000005E-03   2.97903520E-12
   6.04999997E-03   3.19214121E-12
   6.09999988E-03   3.41843697E-12
   6.14999980E-03   3.65860684E-12
   6.20000018E-03   3.91336312E-12
   6.25000009E-03   4.18344829E-12
   6.30000001E-03   4.46963300E-12
   6.34999992E-03   4.77272041E-12
   6.39999984E-03   5.09354321E-12
   6.45000022E-03   5.43296658E-12
   6.50000013E-03   5.79188910E-12
   6.55000005E-03   6.17124277E-12
   6.59999996E-03   6.57199382E-12
   6.64999988E-03   6.99514318E-12
   6.69999979E-03   7.44172779E-12
   6.75000018E-03   7.91282317E-12
   6.80000009E-03   8.40954303E-12
   6.85000001E-03   8.93303660E-12
   6.89999992E-03   9.48449218E-12
   6.94999984E-03   1.00651414E-11
   7.00000022E-03   1.06762542E-11
   7.05000013E-03   1.13191418E-11
   7.10000005E-03   1.19951575E-11
   7.14999996E-03   1.27056959E-11
   7.19999988E-03   1.34522003E-11
   7.24999979E-03   1.42361531E-11
   7.30000017E-03   1.50590807E-11
   7.35000009E-03   1.59225601E-11
   7.40000000E-03   1.68282072E-11
   7.44999992E-03   1.77776890E-11
   7.49999983E-03   1.87727178E-11
   7.55000021E-03   1.98150558E-11
   7.60000013E-03   2.09065074E-11
   7.65000004E-03   2.20489321E-11
   7.69999996E-03   2.32442295E-11
   7.74999987E-03   2.44943562E-11
   7.79999979E-03   2.58013177E-11
   7.84999970E-03   2.71671609E-11
   7.89999962E-03   2.85939848E-11
   7.95000046E-03   3.00839423E-11
   8.00000038E-03   3.16392294E-11
   8.05000030E-03   3.32621014E-11
   8.10000021E-03   3.49548480E-11
   8.15000013E-03   3.67198286E-11
   8.20000004E-03   3.85594334E-11
   8.24999996E-03   4.04761120E-11
   8.29999987E-03   4.24723555E-11
   8.34999979E-03   4.45507103E-11
   8.39999970E-03   4.67137683E-11
   8.44999962E-03   4.89641591E-11
   8.50000046E-03   5.13045578E-11
   8.55000038E-03   5.37376948E-11
   8.60000029E-03   5.62663527E-11
   8.65000021E-03   5.88933416E-11
   8.70000012E-03   6.16215134E-11
   8.75000004E-03   6.44537757E-11
   8.79999995E-03   6.73930564E-11
   8.84999987E-03   7.04423395E-11
   8.89999978E-03   7.36046432E-11
   8.94999970E-03   7.68830000E-11
   8.99999961E-03   8.02805045E-11
   9.05000046E-03   8.38002653E-11
   9.10000037E-03   8.74454328E-11
   9.15000029E-03   9.12191642E-11
   9.20000020E-03   9.51246582E-11
   9.25000012E-03   9.91651275E-11
   9.30000003E-03   1.03343813E-10
   9.34999995E-03   1.07663982E-10
   9.39999986E-03   1.12128883E-10
   9.44999978E-03   1.16741797E-10
   9.49999969E-03   1.21506027E-10
   9.54999961E-03   1.26424857E-10
   9.60000046E-03   1.31501587E-10
   9.65000037E-03   1.36739495E-10
   9.70000029E-03   1.42141854E-10
   9.75000020E-03   1.47711954E-10
   9.80000012E-03   1.53453070E-10
   9.85000003E-03   1.59368407E-10
   9.89999995E-03   1.65461200E-10
   9.94999986E-03   1.71734640E-10
   9.99999978E-03   1.78191878E-10
   1.00499997E-02   1.84836049E-10
   1.00999996E-02   1.91670194E-10
   1.01500005E-02   1.98697364E-10
   1.02000004E-02   2.05920517E-10
   1.02500003E-02   2.13342552E-10
   1.03000002E-02   2.20966315E-10
   1.03500001E-02   2.28794608E-10
   1.04000000E-02   2.36830083E-10
   1.04499999E-02   2.45075377E-10
   1.04999999E-02   2.53533000E-10
   1.05499998E-02   2.62205341E-10
   1.05999997E-02   2.71094702E-10
   1.06499996E-02   2.80203277E-10
   1.07000005E-02   2.89533147E-10
   1.07500004E-02   2.99086256E-10
   1.08000003E-02   3.08864379E-10
   1.08500002E-02   3.18869181E-10
   1.09000001E-02   3.29102190E-10
   1.09500000E-02   3.39564737E-10
   1.09999999E-02   3.50257934E-10
   1.10499999E-02   3.61182778E-10
   1.10999998E-02   3.72340131E-10
   1.11499997E-02   3.83730492E-10
   1.11999996E-02   3.95354333E-10
   1.12500004E-02   4.07211737E-10
   1.13000004E-02   4.19302648E-10
   1.13500003E-02   4.31626790E-10
   1.14000002E-02   4.44183579E-10
   1.14500001E-02   4.56972210E-10
   1.15000000E-02   4.69991657E-10
   1.15499999E-02   4.83240448E-10
   1.15999999E-02   4.96717056E-10
   1.16499998E-02   5.10419373E-10
   1.16999997E-02   5.24345178E-10
   1.17499996E-02   5.38491807E-10
   1.18000004E-02   5.52856372E-10
   1.18500004E-02   5.67435543E-10
   1.19000003E-02   5.82225657E-10
   1.19500002E-02   5.97222716E-10
   1.20000001E-02   6.12422280E-10
   1.20500000E-02   6.27819463E-10
   1.20999999E-02   6.43409215E-10
   1.21499998E-02   6.59185706E-10
   1.21999998E-02   6.75142886E-10
   1.22499997E-02   6.91274205E-10
   1.22999996E-02   7.07572667E-10
   1.23500004E-02   7.24030835E-10
   1.24000004E-02   7.40640660E-10
   1.24500003E-02   7.57393703E-10
   1.25000002E-02   7.74281084E-10
   1.25500001E-02   7.91293198E-10
   1.26000000E-02   8.08420053E-10
   1.26499999E-02   8.25651048E-10
   1.26999998E-02   8.42975079E-10
   1.27499998E-02   8.60380434E-10
   1.27999997E-02   8.77854678E-10
   1.28499996E-02   8.95384877E-10
   1.29000004E-02   9.12957598E-10
   1.29500004E-02   9.30558686E-10
   1.30000003E-02   9.48173318E-10
   1.30500002E-02   9.65786007E-10
   1.31000001E-02   9.83380710E-10
   1.31500000E-02   1.00094066E-09
   1.31999999E-02   1.01844821E-09
   1.32499998E-02   1.03588538E-09
   1.32999998E-02   1.05323328E-09
   1.33499997E-02   1.07047238E-09
   1.33999996E-02   1.08758214E-09
   1.34500004E-02   1.10454157E-09
   1.35000004E-02   1.12132881E-09
   1.35500003E-02   1.13792142E-09
   1.36000002E-02   1.15429599E-09
   1.36500001E-02   1.17042831E-09
   1.37000000E-02   1.18629351E-09
   1.37499999E-02   1.20186583E-09
   1.37999998E-02   1.21711885E-09
   1.38499998E-02   1.23202515E-09
   1.38999997E-02   1.24655652E-09
   1.39499996E-02   1.26068411E-09
   1.40000004E-02   1.27437805E-09
   1.40500003E-02   1.28760758E-09
   1.41000003E-02   1.30034139E-09
   1.41500002E-02   1.31254685E-09
   1.42000001E-02   1.32419087E-09
   1.42500000E-02   1.33523936E-09
   1.42999999E-02   1.34565747E-09
   1.43499998E-02   1.35540934E-09
   1.43999998E-02   1.36445832E-09
   1.44499997E-02   1.37276690E-09
   1.44999996E-02   1.38029665E-09
   1.45500004E-02   1.38700829E-09
   1.46000003E-02   1.39286171E-09
   1.46500003E-02   1.39781609E-09
   1.47000002E-02   1.40182932E-09
   1.47500001E-02   1.40485878E-09
   1.48000000E-02   1.40686096E-09
   1.48499999E-02   1.40779144E-09
   1.48999998E-02   1.40760481E-09
   1.49499997E-02   1.40625522E-09
   1.49999997E-02   1.40369572E-09
   1.50499996E-02   1.39987844E-09
   1.51000004E-02   1.39475520E-09
   1.51500003E-02   1.38827638E-09
   1.52000003E-02   1.38039180E-09
   1.52500002E-02   1.37105072E-09
   1.53000001E-02   1.36020128E-09
   1.53500000E-02   1.34779132E-09
   1.53999999E-02   1.33376765E-09
   1.54499998E-02   1.31807654E-09
   1.54999997E-02   1.30066335E-09
   1.55499997E-02   1.28147293E-09
   1.55999996E-02   1.26044952E-09
   1.56500004E-02   1.23753652E-09
   1.56999994E-02   1.21267685E-09
   1.57500003E-02   1.18581289E-09
   1.57999992E-02   1.15688636E-09
   1.58500001E-02   1.12583876E-09
   1.59000009E-02   1.09261056E-09
   1.59499999E-02   1.05714204E-09
   1.60000008E-02   1.01937325E-09
   1.60499997E-02   9.79243575E-10
   1.61000006E-02   9.36691946E-10
   1.61499996E-02   8.91657137E-10
   1.62000004E-02   8.44077752E-10
   1.62499994E-02   7.93891897E-10
   1.63000003E-02   7.41037343E-10
   1.63499992E-02   6.85451973E-10
   1.64000001E-02   6.27073338E-10
   1.64500009E-02   5.65838654E-10
   1.64999999E-02   5.01685249E-10
   1.65500008E-02   4.34550840E-10
   1.65999997E-02   3.64372699E-10
   1.66500006E-02   2.91088265E-10
   1.66999996E-02   2.14635212E-10
   1.67500004E-02   1.34951425E-10
   1.67999994E-02   5.19751707E-11
   1.68500002E-02  -3.43552999E-11
   1.68999992E-02  -1.24101451E-10
   1.69500001E-02  -2.17324186E-10
   1.70000009E-02  -3.14084037E-10
   1.70499999E-02  -4.14441009E-10
   1.71000008E-02  -5.18454391E-10
   1.71499997E-02  -6.26182717E-10
   1.72000006E-02  -7.37683969E-10
   1.72499996E-02  -8.53015547E-10
   1.73000004E-02  -9.72233738E-10
   1.73499994E-02  -1.09539389E-09
   1.74000002E-02  -1.22255095E-09
   1.74499992E-02  -1.35375822E-09
   1.75000001E-02  -1.48906787E-09
   1.75500009E-02  -1.62853142E-09
   1.75999999E-02  -1.77219828E-09
   1.76500008E-02  -1.92011762E-09
   1.76999997E-02  -2.07233630E-09
   1.77500006E-02  -2.22890018E-09
   1.77999996E-02  -2.38985254E-09
   1.78500004E-02  -2.55523647E-09
   1.78999994E-02  -2.72509237E-09
   1.79500002E-02  -2.89945978E-09
   1.79999992E-02  -3.07837533E-09
   1.80500001E-02  -3.26187410E-09
   1.81000009E-02  -3.44998896E-09
   1.81499999E-02  -3.64275077E-09
   1.82000007E-02  -3.84018817E-09
   1.82499997E-02  -4.04232736E-09
   1.83000006E-02  -4.24919211E-09
   1.83499996E-02  -4.46080461E-09
   1.84000004E-02  -4.67718264E-09
   1.84499994E-02  -4.89834218E-09
   1.85000002E-02  -5.12429654E-09
   1.85499992E-02  -5.35505640E-09
   1.86000001E-02  -5.59062929E-09
   1.86500009E-02  -5.83101967E-09
   1.86999999E-02  -6.07622930E-09
   1.87500007E-02  -6.32625641E-09
   1.87999997E-02  -6.58109522E-09
   1.88500006E-02  -6.84073687E-09
   1.88999996E-02  -7.10516979E-09
   1.89500004E-02  -7.37437800E-09
   1.89999994E-02  -7.64834152E-09
   1.90500002E-02  -7.92703769E-09
   1.90999992E-02  -8.21043944E-09
   1.91500001E-02  -8.49851567E-09
   1.92000009E-02  -8.79123085E-09
   1.92499999E-02  -9.08854769E-09
   1.93000007E-02  -9.39042089E-09
   1.93499997E-02  -9.69680247E-09
   1.94000006E-02  -1.00076400E-08
   1.94499996E-02  -1.03228786E-08
   1.95000004E-02  -1.06424549E-08
   1.95499994E-02  -1.09663061E-08
   1.96000002E-02  -1.12943574E-08
   1.96499992E-02  -1.16265362E-08
   1.97000001E-02  -1.19627597E-08
   1.97500009E-02  -1.23029444E-08
   1.97999999E-02  -1.26469990E-08
   1.98500007E-02  -1.29948274E-08
   1.98999997E-02  -1.33463285E-08
   1.99500006E-02  -1.37013947E-08
   1.99999996E-02  -1.40599168E-08
   2.00500004E-02  -1.44217758E-08
   2.00999994E-02  -1.47868491E-08
   2.01500002E-02  -1.51550079E-08
   2.01999992E-02  -1.55261191E-08
   2.02500001E-02  -1.59000422E-08
   2.03000009E-02  -1.62766298E-08
   2.03499999E-02  -1.66557328E-08
   2.04000007E-02  -1.70371912E-08
   2.04499997E-02  -1.74208452E-08
   2.05000006E-02  -1.78065225E-08
   2.05499995E-02  -1.81940489E-08
   2.06000004E-02  -1.85832398E-08
   2.06499994E-02  -1.89739122E-08
   2.07000002E-02  -1.93658671E-08
   2.07499992E-02  -1.97589056E-08
   2.08000001E-02  -2.01528234E-08
   2.08500009E-02  -2.05474056E-08
   2.08999999E-02  -2.09424318E-08
   2.09500007E-02  -2.13376765E-08
   2.09999997E-02  -2.17329088E-08
   2.10500006E-02  -2.21278906E-08
   2.10999995E-02  -2.25223751E-08
   2.11500004E-02  -2.29161135E-08
   2.11999994E-02  -2.33088446E-08
   2.12500002E-02  -2.37003057E-08
   2.12999992E-02  -2.40902267E-08
   2.13500001E-02  -2.44783305E-08
   2.14000009E-02  -2.48643328E-08
   2.14499999E-02  -2.52479442E-08
   2.15000007E-02  -2.56288697E-08
   2.15499997E-02  -2.60068038E-08
   2.16000006E-02  -2.63814410E-08
   2.16499995E-02  -2.67524634E-08
   2.17000004E-02  -2.71195510E-08
   2.17499994E-02  -2.74823755E-08
   2.18000002E-02  -2.78406045E-08
   2.18499992E-02  -2.81938988E-08
   2.19000001E-02  -2.85419102E-08
   2.19500009E-02  -2.88842887E-08
   2.19999999E-02  -2.92206757E-08
   2.20500007E-02  -2.95507085E-08
   2.20999997E-02  -2.98740161E-08
   2.21500006E-02  -3.01902290E-08
   2.21999995E-02  -3.04989598E-08
   2.22500004E-02  -3.07998249E-08
   2.22999994E-02  -3.10924371E-08
   2.23500002E-02  -3.13763948E-08
   2.23999992E-02  -3.16513038E-08
   2.24500000E-02  -3.19167519E-08
   2.25000009E-02  -3.21723341E-08
   2.25499999E-02  -3.24176241E-08
   2.26000007E-02  -3.26522098E-08
   2.26499997E-02  -3.28756684E-08
   2.27000006E-02  -3.30875629E-08
   2.27499995E-02  -3.32874670E-08
   2.28000004E-02  -3.34749402E-08
   2.28499994E-02  -3.36495418E-08
   2.29000002E-02  -3.38108279E-08
   2.29499992E-02  -3.39583544E-08
   2.30000000E-02  -3.40916664E-08
   2.30500009E-02  -3.42103093E-08
   2.30999999E-02  -3.43138318E-08
   2.31500007E-02  -3.44017721E-08
   2.31999997E-02  -3.44736684E-08
   2.32500006E-02  -3.45290516E-08
   2.32999995E-02  -3.45674636E-08
   2.33500004E-02  -3.45884352E-08
   2.33999994E-02  -3.45914977E-08
   2.34500002E-02  -3.45761819E-08
   2.34999992E-02  -3.45420119E-08
   2.35500000E-02  -3.44885187E-08
   2.36000009E-02  -3.44152333E-08
   2.36499999E-02  -3.43216833E-08
   2.37000007E-02  -3.42073960E-08
   2.37499997E-02  -3.40719026E-08
   2.38000005E-02  -3.39147306E-08
   2.38499995E-02  -3.37354074E-08
   2.39000004E-02  -3.35334640E-08
   2.39499994E-02  -3.33084351E-08
   2.40000002E-02  -3.30598589E-08
   2.40499992E-02  -3.27872698E-08
   2.41000000E-02  -3.24902132E-08
   2.41500009E-02  -3.21682307E-08
   2.41999999E-02  -3.18208677E-08
   2.42500007E-02  -3.14476729E-08
   2.42999997E-02  -3.10481987E-08
   2.43500005E-02  -3.06220045E-08
   2.43999995E-02  -3.01686534E-08
   2.44500004E-02  -2.96877136E-08
   2.44999994E-02  -2.91787572E-08
   2.45500002E-02  -2.86413595E-08
   2.45999992E-02  -2.80751085E-08
   2.46500000E-02  -2.74795973E-08
   2.47000009E-02  -2.68544209E-08
   2.47499999E-02  -2.61991868E-08
   2.48000007E-02  -2.55135078E-08
   2.48499997E-02  -2.47970018E-08
   2.49000005E-02  -2.40493012E-08
   2.49499995E-02  -2.32700454E-08
   2.50000004E-02  -2.24588774E-08
   2.50499994E-02  -2.16154525E-08
   2.51000002E-02  -2.07394422E-08
   2.51499992E-02  -1.98305194E-08
   2.52000000E-02  -1.88883718E-08
   2.52500009E-02  -1.79126989E-08
   2.52999999E-02  -1.69032131E-08
   2.53500007E-02  -1.58596407E-08
   2.53999997E-02  -1.47817074E-08
   2.54500005E-02  -1.36691654E-08
   2.54999995E-02  -1.25217765E-08
   2.55500004E-02  -1.13393117E-08
   2.55999994E-02  -1.01215596E-08
   2.56500002E-02  -8.86832385E-09
   2.56999992E-02  -7.57942153E-09
   2.57500000E-02  -6.25468433E-09
   2.58000009E-02  -4.89396523E-09
   2.58499999E-02  -3.49712748E-09
   2.59000007E-02  -2.06405226E-09
   2.59499997E-02  -5.94631733E-10
   2.60000005E-02   9.11217768E-10
   2.60499995E-02   2.45355802E-09
   2.61000004E-02   4.03244060E-09
   2.61499994E-02   5.64789904E-09
   2.62000002E-02   7.29994376E-09
   2.62499992E-02   8.98856900E-09
   2.63000000E-02   1.07137437E-08
   2.63500009E-02   1.24754216E-08
   2.63999999E-02   1.42735406E-08
   2.64500007E-02   1.61080091E-08
   2.64999997E-02   1.79787207E-08
   2.65500005E-02   1.98855474E-08
   2.65999995E-02   2.18283311E-08
   2.66500004E-02   2.38068978E-08
   2.66999993E-02   2.58210555E-08
   2.67500002E-02   2.78705858E-08
   2.67999992E-02   2.99552454E-08
   2.68500000E-02   3.20747588E-08
   2.69000009E-02   3.42288509E-08
   2.69499999E-02   3.64172053E-08
   2.70000007E-02   3.86394809E-08
   2.70499997E-02   4.08953227E-08
   2.71000005E-02   4.31843326E-08
   2.71499995E-02   4.55061020E-08
   2.72000004E-02   4.78601940E-08
   2.72499993E-02   5.02461539E-08
   2.73000002E-02   5.26634842E-08
   2.73499992E-02   5.51116699E-08
   2.74000000E-02   5.75901709E-08
   2.74500009E-02   6.00984151E-08
   2.74999999E-02   6.26358130E-08
   2.75500007E-02   6.52017462E-08
   2.75999997E-02   6.77955541E-08
   2.76500005E-02   7.04165757E-08
   2.76999995E-02   7.30641005E-08
   2.77500004E-02   7.57374039E-08
   2.77999993E-02   7.84357184E-08
   2.78500002E-02   8.11582694E-08
   2.78999992E-02   8.39042329E-08
   2.79500000E-02   8.66727774E-08
   2.80000009E-02   8.94630361E-08
   2.80499998E-02   9.22740995E-08
   2.81000007E-02   9.51050581E-08
   2.81499997E-02   9.79549526E-08
   2.82000005E-02   1.00822795E-07
   2.82499995E-02   1.03707592E-07
   2.83000004E-02   1.06608297E-07
   2.83499993E-02   1.09523853E-07
   2.84000002E-02   1.12453165E-07
   2.84499992E-02   1.15395110E-07
   2.85000000E-02   1.18348545E-07
   2.85500009E-02   1.21312283E-07
   2.85999998E-02   1.24285137E-07
   2.86500007E-02   1.27265878E-07
   2.86999997E-02   1.30253241E-07
   2.87500005E-02   1.33245948E-07
   2.87999995E-02   1.36242704E-07
   2.88500004E-02   1.39242147E-07
   2.88999993E-02   1.42242925E-07
   2.89500002E-02   1.45243661E-07
   2.89999992E-02   1.48242933E-07
   2.90500000E-02   1.51239291E-07
   2.91000009E-02   1.54231287E-07
   2.91499998E-02   1.57217428E-07
   2.92000007E-02   1.60196194E-07
   2.92499997E-02   1.63166050E-07
   2.93000005E-02   1.66125446E-07
   2.93499995E-02   1.69072791E-07
   2.94000003E-02   1.72006494E-07
   2.94499993E-02   1.74924907E-07
   2.95000002E-02   1.77826394E-07
   2.95499992E-02   1.80709264E-07
   2.96000000E-02   1.83571842E-07
   2.96500009E-02   1.86412421E-07
   2.96999998E-02   1.89229254E-07
   2.97500007E-02   1.92020579E-07
   2.97999997E-02   1.94784647E-07
   2.98500005E-02   1.97519668E-07
   2.98999995E-02   2.00223838E-07
   2.99500003E-02   2.02895336E-07
   2.99999993E-02   2.05532316E-07
   3.00500002E-02   2.08132917E-07
   3.00999992E-02   2.10695291E-07
   3.01500000E-02   2.13217547E-07
   3.02000009E-02   2.15697796E-07
   3.02499998E-02   2.18134119E-07
   3.03000007E-02   2.20524598E-07
   3.03499997E-02   2.22867300E-07
   3.04000005E-02   2.25160306E-07
   3.04499995E-02   2.27401657E-07
   3.05000003E-02   2.29589375E-07
   3.05499993E-02   2.31721529E-07
   3.06000002E-02   2.33796129E-07
   3.06499992E-02   2.35811200E-07
   3.07000000E-02   2.37764752E-07
   3.07500008E-02   2.39654781E-07
   3.07999998E-02   2.41479370E-07
   3.08500007E-02   2.43236457E-07
   3.08999997E-02   2.44924081E-07
   3.09500005E-02   2.46540225E-07
   3.09999995E-02   2.48082898E-07
   3.10500003E-02   2.49550112E-07
   3.10999993E-02   2.50939905E-07
   3.11500002E-02   2.52250288E-07
   3.11999992E-02   2.53479271E-07
   3.12500000E-02   2.54624894E-07
   3.13000008E-02   2.55685165E-07
   3.13500017E-02   2.56658154E-07
   3.13999988E-02   2.57541899E-07
   3.14499997E-02   2.58334438E-07
   3.15000005E-02   2.59033925E-07
   3.15500014E-02   2.59638369E-07
   3.15999985E-02   2.60145896E-07
   3.16499993E-02   2.60554657E-07
   3.17000002E-02   2.60862720E-07
   3.17500010E-02   2.61068294E-07
   3.18000019E-02   2.61169504E-07
   3.18499990E-02   2.61164558E-07
   3.18999998E-02   2.61051639E-07
   3.19500007E-02   2.60828983E-07
   3.20000015E-02   2.60494858E-07
   3.20499986E-02   2.60047557E-07
   3.20999995E-02   2.59485347E-07
   3.21500003E-02   2.58806608E-07
   3.22000012E-02   2.58009607E-07
   3.22499983E-02   2.57092807E-07
   3.22999991E-02   2.56054591E-07
   3.23500000E-02   2.54893450E-07
   3.24000008E-02   2.53607851E-07
   3.24500017E-02   2.52196259E-07
   3.24999988E-02   2.50657223E-07
   3.25499997E-02   2.48989409E-07
   3.26000005E-02   2.47191366E-07
   3.26500013E-02   2.45261788E-07
   3.26999985E-02   2.43199395E-07
   3.27499993E-02   2.41002880E-07
   3.28000002E-02   2.38671049E-07
   3.28500010E-02   2.36202723E-07
   3.29000019E-02   2.33596808E-07
   3.29499990E-02   2.30852194E-07
   3.29999998E-02   2.27967845E-07
   3.30500007E-02   2.24942809E-07
   3.31000015E-02   2.21776077E-07
   3.31499986E-02   2.18466795E-07
   3.31999995E-02   2.15014111E-07
   3.32500003E-02   2.11417259E-07
   3.33000012E-02   2.07675498E-07
   3.33499983E-02   2.03788147E-07
   3.33999991E-02   1.99754595E-07
   3.34500000E-02   1.95574287E-07
   3.35000008E-02   1.91246656E-07
   3.35500017E-02   1.86771302E-07
   3.35999988E-02   1.82147829E-07
   3.36499996E-02   1.77375881E-07
   3.37000005E-02   1.72455188E-07
   3.37500013E-02   1.67385565E-07
   3.37999985E-02   1.62166870E-07
   3.38499993E-02   1.56798990E-07
   3.39000002E-02   1.51281910E-07
   3.39500010E-02   1.45615687E-07
   3.40000018E-02   1.39800406E-07
   3.40499990E-02   1.33836295E-07
   3.40999998E-02   1.27723567E-07
   3.41500007E-02   1.21462534E-07
   3.42000015E-02   1.15053588E-07
   3.42499986E-02   1.08497190E-07
   3.42999995E-02   1.01793837E-07
   3.43500003E-02   9.49441556E-08
   3.44000012E-02   8.79488340E-08
   3.44499983E-02   8.08085829E-08
   3.44999991E-02   7.35241699E-08
   3.45500000E-02   6.60964972E-08
   3.46000008E-02   5.85265099E-08
   3.46500017E-02   5.08152880E-08
   3.46999988E-02   4.29638973E-08
   3.47499996E-02   3.49735494E-08
   3.48000005E-02   2.68454841E-08
   3.48500013E-02   1.85809732E-08
   3.48999985E-02   1.01814228E-08
   3.49499993E-02   1.64834513E-09
   3.50000001E-02  -7.01669922E-09
   3.50500010E-02  -1.58120965E-08
   3.51000018E-02  -2.47361438E-08
   3.51499990E-02  -3.37870460E-08
   3.51999998E-02  -4.29629594E-08
   3.52500007E-02  -5.22619388E-08
   3.53000015E-02  -6.16820159E-08
   3.53499986E-02  -7.12211019E-08
   3.53999995E-02  -8.08770011E-08
   3.54500003E-02  -9.06475108E-08
   3.55000012E-02  -1.00530336E-07
   3.55499983E-02  -1.10523096E-07
   3.55999991E-02  -1.20623326E-07
   3.56500000E-02  -1.30828496E-07
   3.57000008E-02  -1.41135985E-07
   3.57500017E-02  -1.51543148E-07
   3.57999988E-02  -1.62047229E-07
   3.58499996E-02  -1.72645429E-07
   3.59000005E-02  -1.83334848E-07
   3.59500013E-02  -1.94112502E-07
   3.59999985E-02  -2.04975336E-07
   3.60499993E-02  -2.15920267E-07
   3.61000001E-02  -2.26944152E-07
   3.61500010E-02  -2.38043739E-07
   3.62000018E-02  -2.49215731E-07
   3.62499990E-02  -2.60456716E-07
   3.62999998E-02  -2.71763270E-07
   3.63500006E-02  -2.83131925E-07
   3.64000015E-02  -2.94559072E-07
   3.64499986E-02  -3.06041130E-07
   3.64999995E-02  -3.17574347E-07
   3.65500003E-02  -3.29155000E-07
   3.66000012E-02  -3.40779309E-07
   3.66499983E-02  -3.52443379E-07
   3.66999991E-02  -3.64143290E-07
   3.67500000E-02  -3.75875032E-07
   3.68000008E-02  -3.87634600E-07
   3.68500017E-02  -3.99417900E-07
   3.68999988E-02  -4.11220810E-07
   3.69499996E-02  -4.23039126E-07
   3.70000005E-02  -4.34868610E-07
   3.70500013E-02  -4.46704945E-07
   3.70999984E-02  -4.58543809E-07
   3.71499993E-02  -4.70380883E-07
   3.72000001E-02  -4.82211703E-07
   3.72500010E-02  -4.94031781E-07
   3.73000018E-02  -5.05836681E-07
   3.73499990E-02  -5.17621800E-07
   3.73999998E-02  -5.29382646E-07
   3.74500006E-02  -5.41114559E-07
   3.75000015E-02  -5.52812878E-07
   3.75499986E-02  -5.64472941E-07
   3.75999995E-02  -5.76090088E-07
   3.76500003E-02  -5.87659656E-07
   3.77000012E-02  -5.99176701E-07
   3.77499983E-02  -6.10636619E-07
   3.77999991E-02  -6.22034520E-07
   3.78500000E-02  -6.33365687E-07
   3.79000008E-02  -6.44625175E-07
   3.79500017E-02  -6.55808208E-07
   3.79999988E-02  -6.66909898E-07
   3.80499996E-02  -6.77925414E-07
   3.81000005E-02  -6.88849809E-07
   3.81500013E-02  -6.99678253E-07
   3.81999984E-02  -7.10405857E-07
   3.82499993E-02  -7.21027732E-07
   3.83000001E-02  -7.31538933E-07
   3.83500010E-02  -7.41934628E-07
   3.84000018E-02  -7.52209871E-07
   3.84499989E-02  -7.62359832E-07
   3.84999998E-02  -7.72379565E-07
   3.85500006E-02  -7.82264294E-07
   3.86000015E-02  -7.92009075E-07
   3.86499986E-02  -8.01609133E-07
   3.86999995E-02  -8.11059692E-07
   3.87500003E-02  -8.20355808E-07
   3.88000011E-02  -8.29492819E-07
   3.88499983E-02  -8.38465894E-07
   3.88999991E-02  -8.47270371E-07
   3.89500000E-02  -8.55901533E-07
   3.90000008E-02  -8.64354718E-07
   3.90500017E-02  -8.72625378E-07
   3.90999988E-02  -8.80708740E-07
   3.91499996E-02  -8.88600368E-07
   3.92000005E-02  -8.96295717E-07
   3.92500013E-02  -9.03790124E-07
   3.92999984E-02  -9.11079383E-07
   3.93499993E-02  -9.18159060E-07
   3.94000001E-02  -9.25024722E-07
   3.94500010E-02  -9.31672105E-07
   3.95000018E-02  -9.38097003E-07
   3.95499989E-02  -9.44295152E-07
   3.95999998E-02  -9.50262518E-07
   3.96500006E-02  -9.55995006E-07
   3.97000015E-02  -9.61488468E-07
   3.97499986E-02  -9.66739094E-07
   3.97999994E-02  -9.71743020E-07
   3.98500003E-02  -9.76496267E-07
   3.99000011E-02  -9.80995310E-07
   3.99499983E-02  -9.85236284E-07
   3.99999991E-02  -9.89215664E-07
   4.00500000E-02  -9.92929813E-07
   4.01000008E-02  -9.96375434E-07
   4.01500016E-02  -9.99549115E-07
   4.01999988E-02  -1.00244745E-06
   4.02499996E-02  -1.00506736E-06
   4.03000005E-02  -1.00740556E-06
   4.03500013E-02  -1.00945908E-06
   4.03999984E-02  -1.01122509E-06
   4.04499993E-02  -1.01270052E-06
   4.05000001E-02  -1.01388264E-06
   4.05500010E-02  -1.01476871E-06
   4.06000018E-02  -1.01535636E-06
   4.06499989E-02  -1.01564285E-06
   4.06999998E-02  -1.01562580E-06
   4.07500006E-02  -1.01530293E-06
   4.08000015E-02  -1.01467208E-06
   4.08499986E-02  -1.01373109E-06
   4.08999994E-02  -1.01247792E-06
   4.09500003E-02  -1.01091052E-06
   4.10000011E-02  -1.00902730E-06
   4.10499983E-02  -1.00682655E-06
   4.10999991E-02  -1.00430645E-06
   4.11499999E-02  -1.00146565E-06
   4.12000008E-02  -9.98302767E-07
   4.12500016E-02  -9.94816560E-07
   4.12999988E-02  -9.91005663E-07
   4.13499996E-02  -9.86869054E-07
   4.14000005E-02  -9.82405822E-07
   4.14500013E-02  -9.77615059E-07
   4.14999984E-02  -9.72496196E-07
   4.15499993E-02  -9.67048436E-07
   4.16000001E-02  -9.61271326E-07
   4.16500010E-02  -9.55164296E-07
   4.17000018E-02  -9.48727177E-07
   4.17499989E-02  -9.41959684E-07
   4.17999998E-02  -9.34861816E-07
   4.18500006E-02  -9.27433518E-07
   4.19000015E-02  -9.19674960E-07
   4.19499986E-02  -9.11586483E-07
   4.19999994E-02  -9.03168484E-07
   4.20500003E-02  -8.94421248E-07
   4.21000011E-02  -8.85345344E-07
   4.21499982E-02  -8.75941566E-07
   4.21999991E-02  -8.66210712E-07
   4.22499999E-02  -8.56153804E-07
   4.23000008E-02  -8.45771865E-07
   4.23500016E-02  -8.35065748E-07
   4.23999988E-02  -8.24036874E-07
   4.24499996E-02  -8.12686551E-07
   4.25000004E-02  -8.01016199E-07
   4.25500013E-02  -7.89027411E-07
   4.25999984E-02  -7.76721834E-07
   4.26499993E-02  -7.64101060E-07
   4.27000001E-02  -7.51167192E-07
   4.27500010E-02  -7.37922107E-07
   4.28000018E-02  -7.24367908E-07