   0.00000000       0.00000000    
   4.99999987E-05   0.00000000    
   9.99999975E-05   0.00000000    
   1.50000007E-04   0.00000000    
   1.99999995E-04   5.08440526E-25
   2.50000012E-04   5.36353038E-24
   3.00000014E-04   3.05038502E-23
   3.49999988E-04   1.24653655E-22
   3.99999990E-04   4.10685304E-22
   4.49999992E-04   1.15966128E-21
   5.00000024E-04   2.91321359E-21
   5.49999997E-04   6.67396581E-21
   6.00000028E-04   1.41881185E-20
   6.50000002E-04   2.83490855E-20
   6.99999975E-04   5.37561319E-20
   7.50000007E-04   9.74673249E-20
   7.99999980E-04   1.69991833E-19
   8.50000011E-04   2.86572277E-19
   8.99999985E-04   4.68813970E-19
   9.50000016E-04   7.46724477E-19
   1.00000005E-03   1.16123306E-18
   1.04999996E-03   1.76726580E-18
   1.09999999E-03   2.63745835E-18
   1.15000003E-03   3.86659870E-18
   1.20000006E-03   5.57689015E-18
   1.24999997E-03   7.92414708E-18
   1.30000000E-03   1.11050164E-17
   1.35000004E-03   1.53653646E-17
   1.39999995E-03   2.10099260E-17
   1.44999998E-03   2.84133629E-17
   1.50000001E-03   3.80328547E-17
   1.55000004E-03   5.04223725E-17
   1.59999996E-03   6.62487828E-17
   1.64999999E-03   8.63099177E-17
   1.70000002E-03   1.11554782E-16
   1.75000005E-03   1.43106031E-16
   1.79999997E-03   1.82284984E-16
   1.85000000E-03   2.30639210E-16
   1.90000003E-03   2.89972783E-16
   1.94999995E-03   3.62379938E-16
   2.00000009E-03   4.50281338E-16
   2.05000001E-03   5.56464012E-16
   2.09999993E-03   6.84124953E-16
   2.15000007E-03   8.36917839E-16
   2.19999999E-03   1.01900425E-15
   2.24999990E-03   1.23510893E-15
   2.30000005E-03   1.49057862E-15
   2.34999997E-03   1.79144631E-15
   2.40000011E-03   2.14449875E-15
   2.45000003E-03   2.55735044E-15
   2.49999994E-03   3.03852127E-15
   2.55000009E-03   3.59751960E-15
   2.60000001E-03   4.24493145E-15
   2.64999992E-03   4.99251256E-15
   2.70000007E-03   5.85328947E-15
   2.74999999E-03   6.84166511E-15
   2.79999990E-03   7.97352686E-15
   2.85000005E-03   9.26636765E-15
   2.89999996E-03   1.07394028E-14
   2.95000011E-03   1.24137058E-14
   3.00000003E-03   1.43123394E-14
   3.04999994E-03   1.64604963E-14
   3.10000009E-03   1.88856533E-14
   3.15000000E-03   2.16177174E-14
   3.19999992E-03   2.46891876E-14
   3.25000007E-03   2.81353293E-14
   3.29999998E-03   3.19943385E-14
   3.34999990E-03   3.63075320E-14
   3.40000005E-03   4.11195160E-14
   3.44999996E-03   4.64783953E-14
   3.50000011E-03   5.24359642E-14
   3.55000002E-03   5.90479136E-14
   3.59999994E-03   6.63740235E-14
   3.65000009E-03   7.44784144E-14
   3.70000000E-03   8.34297366E-14
   3.74999992E-03   9.33014042E-14
   3.80000006E-03   1.04171839E-13
   3.84999998E-03   1.16124666E-13
   3.89999989E-03   1.29249042E-13
   3.94999981E-03   1.43639779E-13
   4.00000019E-03   1.59397669E-13
   4.05000011E-03   1.76629761E-13
   4.10000002E-03   1.95449505E-13
   4.14999994E-03   2.15977139E-13
   4.19999985E-03   2.38339893E-13
   4.25000023E-03   2.62672181E-13
   4.30000015E-03   2.89115953E-13
   4.35000006E-03   3.17820938E-13
   4.39999998E-03   3.48944831E-13
   4.44999989E-03   3.82653653E-13
   4.49999981E-03   4.19122040E-13
   4.55000019E-03   4.58533331E-13
   4.60000010E-03   5.01079918E-13
   4.65000002E-03   5.46963516E-13
   4.69999993E-03   5.96395383E-13
   4.74999985E-03   6.49596587E-13
   4.80000023E-03   7.06798064E-13
   4.85000014E-03   7.68241211E-13
   4.90000006E-03   8.34177671E-13
   4.94999997E-03   9.04869929E-13
   4.99999989E-03   9.80591151E-13
   5.04999980E-03   1.06162551E-12
   5.10000018E-03   1.14826855E-12
   5.15000010E-03   1.24082710E-12
   5.20000001E-03   1.33961971E-12
   5.24999993E-03   1.44497630E-12
   5.29999984E-03   1.55723850E-12
   5.35000023E-03   1.67676018E-12
   5.40000014E-03   1.80390674E-12
   5.45000006E-03   1.93905569E-12
   5.49999997E-03   2.08259647E-12
   5.54999989E-03   2.23493099E-12
   5.59999980E-03   2.39647256E-12
   5.65000018E-03   2.56764683E-12
   5.70000010E-03   2.74889118E-12
   5.75000001E-03   2.94065488E-12
   5.79999993E-03   3.14339917E-12
   5.84999984E-03   3.35759610E-12
   5.90000022E-03   3.58373010E-12
   5.95000014E-03   3.82229578E-12
   6.00000005E-03   4.07379902E-12
   6.04999997E-03   4.33875635E-12
   6.09999988E-03   4.61769425E-12
   6.14999980E-03   4.91114918E-12
   6.20000018E-03   5.21966801E-12
   6.25000009E-03   5.54380587E-12
   6.30000001E-03   5.88412609E-12
   6.34999992E-03   6.24120026E-12
   6.39999984E-03   6.61560780E-12
   6.45000022E-03   7.00793503E-12
   6.50000013E-03   7.41877393E-12
   6.55000005E-03   7.84872254E-12
   6.59999996E-03   8.29838368E-12
   6.64999988E-03   8.76836190E-12
   6.69999979E-03   9.25926696E-12
   6.75000018E-03   9.77171122E-12
   6.80000009E-03   1.03063062E-11
   6.85000001E-03   1.08636641E-11
   6.89999992E-03   1.14443958E-11
   6.94999984E-03   1.20491108E-11
   7.00000022E-03   1.26784156E-11
   7.05000013E-03   1.33329094E-11
   7.10000005E-03   1.40131890E-11
   7.14999996E-03   1.47198417E-11
   7.19999988E-03   1.54534475E-11
   7.24999979E-03   1.62145748E-11
   7.30000017E-03   1.70037786E-11
   7.35000009E-03   1.78216036E-11
   7.40000000E-03   1.86685788E-11
   7.44999992E-03   1.95452161E-11
   7.49999983E-03   2.04520099E-11
   7.55000021E-03   2.13894284E-11
   7.60000013E-03   2.23579245E-11
   7.65000004E-03   2.33579232E-11
   7.69999996E-03   2.43898235E-11
   7.74999987E-03   2.54539948E-11
   7.79999979E-03   2.65507789E-11
   7.84999970E-03   2.76804812E-11
   7.89999962E-03   2.88433739E-11
   7.95000046E-03   3.00396895E-11
   8.00000038E-03   3.12696258E-11
   8.05000030E-03   3.25333337E-11
   8.10000021E-03   3.38309172E-11
   8.15000013E-03   3.51624424E-11
   8.20000004E-03   3.65279126E-11
   8.24999996E-03   3.79272828E-11
   8.29999987E-03   3.93604593E-11
   8.34999979E-03   4.08272860E-11
   8.39999970E-03   4.23275442E-11
   8.44999962E-03   4.38609531E-11
   8.50000046E-03   4.54271690E-11
   8.55000038E-03   4.70257722E-11
   8.60000029E-03   4.86562735E-11
   8.65000021E-03   5.03181108E-11
   8.70000012E-03   5.20106354E-11
   8.75000004E-03   5.37331325E-11
   8.79999995E-03   5.54847973E-11
   8.84999987E-03   5.72647277E-11
   8.89999978E-03   5.90719418E-11
   8.94999970E-03   6.09053571E-11
   8.99999961E-03   6.27638011E-11
   9.05000046E-03   6.46460038E-11
   9.10000037E-03   6.65505845E-11
   9.15000029E-03   6.84760512E-11
   9.20000020E-03   7.04208358E-11
   9.25000012E-03   7.23832244E-11
   9.30000003E-03   7.43613920E-11
   9.34999995E-03   7.63534236E-11
   9.39999986E-03   7.83572443E-11
   9.44999978E-03   8.03706893E-11
   9.49999969E-03   8.23914548E-11
   9.54999961E-03   8.44171053E-11
   9.60000046E-03   8.64450664E-11
   9.65000037E-03   8.84726389E-11
   9.70000029E-03   9.04970057E-11
   9.75000020E-03   9.25151761E-11
   9.80000012E-03   9.45240344E-11
   9.85000003E-03   9.65203195E-11
   9.89999995E-03   9.85006243E-11
   9.94999986E-03   1.00461389E-10
   9.99999978E-03   1.02398909E-10
   1.00499997E-02   1.04309311E-10
   1.00999996E-02   1.06188579E-10
   1.01500005E-02   1.08032541E-10
   1.02000004E-02   1.09836876E-10
   1.02500003E-02   1.11597079E-10
   1.03000002E-02   1.13308495E-10
   1.03500001E-02   1.14966328E-10
   1.04000000E-02   1.16565591E-10
   1.04499999E-02   1.18101140E-10
   1.04999999E-02   1.19567661E-10
   1.05499998E-02   1.20959687E-10
   1.05999997E-02   1.22271596E-10
   1.06499996E-02   1.23497559E-10
   1.07000005E-02   1.24631624E-10
   1.07500004E-02   1.25667657E-10
   1.08000003E-02   1.26599370E-10
   1.08500002E-02   1.27420283E-10
   1.09000001E-02   1.28123775E-10
   1.09500000E-02   1.28703062E-10
   1.09999999E-02   1.29151204E-10
   1.10499999E-02   1.29461109E-10
   1.10999998E-02   1.29625491E-10
   1.11499997E-02   1.29636954E-10
   1.11999996E-02   1.29487934E-10
   1.12500004E-02   1.29170730E-10
   1.13000004E-02   1.28677458E-10
   1.13500003E-02   1.28000138E-10
   1.14000002E-02   1.27130639E-10
   1.14500001E-02   1.26060690E-10
   1.15000000E-02   1.24781879E-10
   1.15499999E-02   1.23285715E-10
   1.15999999E-02   1.21563537E-10
   1.16499998E-02   1.19606589E-10
   1.16999997E-02   1.17406002E-10
   1.17499996E-02   1.14952846E-10
   1.18000004E-02   1.12238031E-10
   1.18500004E-02   1.09252427E-10
   1.19000003E-02   1.05986796E-10
   1.19500002E-02   1.02431834E-10
   1.20000001E-02   9.85781942E-11
   1.20500000E-02   9.44164538E-11
   1.20999999E-02   8.99371480E-11
   1.21499998E-02   8.51307497E-11
   1.21999998E-02   7.99877456E-11
   1.22499997E-02   7.44985809E-11
   1.22999996E-02   6.86536800E-11
   1.23500004E-02   6.24435087E-11
   1.24000004E-02   5.58585157E-11
   1.24500003E-02   4.88891774E-11
   1.25000002E-02   4.15260153E-11
   1.25500001E-02   3.37596028E-11
   1.26000000E-02   2.55805706E-11
   1.26499999E-02   1.69796330E-11
   1.26999998E-02   7.94759050E-12
   1.27499998E-02  -1.52464489E-12
   1.27999997E-02  -1.14460446E-11
   1.28499996E-02  -2.18254581E-11
   1.29000004E-02  -3.26715703E-11
   1.29500004E-02  -4.39929065E-11
   1.30000003E-02  -5.57978039E-11
   1.30500002E-02  -6.80943982E-11
   1.31000001E-02  -8.08906206E-11
   1.31500000E-02  -9.41941733E-11
   1.31999999E-02  -1.08012495E-10
   1.32499998E-02  -1.22352725E-10
   1.32999998E-02  -1.37221776E-10
   1.33499997E-02  -1.52626217E-10
   1.33999996E-02  -1.68572281E-10
   1.34500004E-02  -1.85065879E-10
   1.35000004E-02  -2.02112535E-10
   1.35500003E-02  -2.19717425E-10
   1.36000002E-02  -2.37885267E-10
   1.36500001E-02  -2.56620392E-10
   1.37000000E-02  -2.75926615E-10
   1.37499999E-02  -2.95807351E-10
   1.37999998E-02  -3.16265486E-10
   1.38499998E-02  -3.37303380E-10
   1.38999997E-02  -3.58922919E-10
   1.39499996E-02  -3.81125353E-10
   1.40000004E-02  -4.03911321E-10
   1.40500003E-02  -4.27280961E-10
   1.41000003E-02  -4.51233717E-10
   1.41500002E-02  -4.75768369E-10
   1.42000001E-02  -5.00883002E-10
   1.42500000E-02  -5.26575117E-10
   1.42999999E-02  -5.52841328E-10
   1.43499998E-02  -5.79677528E-10
   1.43999998E-02  -6.07078943E-10
   1.44499997E-02  -6.35039965E-10
   1.44999996E-02  -6.63553990E-10
   1.45500004E-02  -6.92613800E-10
   1.46000003E-02  -7.22211180E-10
   1.46500003E-02  -7.52337026E-10
   1.47000002E-02  -7.82981346E-10
   1.47500001E-02  -8.14133094E-10
   1.48000000E-02  -8.45780446E-10
   1.48499999E-02  -8.77910467E-10
   1.48999998E-02  -9.10509168E-10
   1.49499997E-02  -9.43561562E-10
   1.49999997E-02  -9.77051662E-10
   1.50499996E-02  -1.01096220E-09
   1.51000004E-02  -1.04527498E-09
   1.51500003E-02  -1.07997045E-09
   1.52000003E-02  -1.11502818E-09
   1.52500002E-02  -1.15042653E-09
   1.53000001E-02  -1.18614230E-09
   1.53500000E-02  -1.22215149E-09
   1.53999999E-02  -1.25842869E-09
   1.54499998E-02  -1.29494726E-09
   1.54999997E-02  -1.33167910E-09
   1.55499997E-02  -1.36859490E-09
   1.55999996E-02  -1.40566403E-09
   1.56500004E-02  -1.44285461E-09
   1.56999994E-02  -1.48013346E-09
   1.57500003E-02  -1.51746582E-09
   1.57999992E-02  -1.55481550E-09
   1.58500001E-02  -1.59214508E-09
   1.59000009E-02  -1.62941560E-09
   1.59499999E-02  -1.66658654E-09
   1.60000008E-02  -1.70361647E-09
   1.60499997E-02  -1.74046177E-09
   1.61000006E-02  -1.77707771E-09
   1.61499996E-02  -1.81341808E-09
   1.62000004E-02  -1.84943527E-09
   1.62499994E-02  -1.88507987E-09
   1.63000003E-02  -1.92030147E-09
   1.63499992E-02  -1.95504724E-09
   1.64000001E-02  -1.98926364E-09
   1.64500009E-02  -2.02289518E-09
   1.64999999E-02  -2.05588502E-09
   1.65500008E-02  -2.08817497E-09
   1.65999997E-02  -2.11970486E-09
   1.66500006E-02  -2.15041340E-09
   1.66999996E-02  -2.18023755E-09
   1.67500004E-02  -2.20911245E-09
   1.67999994E-02  -2.23697283E-09
   1.68500002E-02  -2.26375052E-09
   1.68999992E-02  -2.28937624E-09
   1.69500001E-02  -2.31378028E-09
   1.70000009E-02  -2.33688979E-09
   1.70499999E-02  -2.35863173E-09
   1.71000008E-02  -2.37893105E-09
   1.71499997E-02  -2.39771114E-09
   1.72000006E-02  -2.41489451E-09
   1.72499996E-02  -2.43040144E-09
   1.73000004E-02  -2.44415155E-09
   1.73499994E-02  -2.45606313E-09
   1.74000002E-02  -2.46605247E-09
   1.74499992E-02  -2.47403542E-09
   1.75000001E-02  -2.47992560E-09
   1.75500009E-02  -2.48363641E-09
   1.75999999E-02  -2.48507881E-09
   1.76500008E-02  -2.48416376E-09
   1.76999997E-02  -2.48080045E-09
   1.77500006E-02  -2.47489718E-09
   1.77999996E-02  -2.46636112E-09
   1.78500004E-02  -2.45509857E-09
   1.78999994E-02  -2.44101472E-09
   1.79500002E-02  -2.42401343E-09
   1.79999992E-02  -2.40399833E-09
   1.80500001E-02  -2.38087217E-09
   1.81000009E-02  -2.35453657E-09
   1.81499999E-02  -2.32489250E-09
   1.82000007E-02  -2.29184050E-09
   1.82499997E-02  -2.25528041E-09
   1.83000006E-02  -2.21511165E-09
   1.83499996E-02  -2.17123275E-09
   1.84000004E-02  -2.12354201E-09
   1.84499994E-02  -2.07193773E-09
   1.85000002E-02  -2.01631756E-09
   1.85499992E-02  -1.95657934E-09
   1.86000001E-02  -1.89262028E-09
   1.86500009E-02  -1.82433813E-09
   1.86999999E-02  -1.75163029E-09
   1.87500007E-02  -1.67439418E-09
   1.87999997E-02  -1.59252778E-09
   1.88500006E-02  -1.50592905E-09
   1.88999996E-02  -1.41449685E-09
   1.89500004E-02  -1.31812983E-09
   1.89999994E-02  -1.21672772E-09
   1.90500002E-02  -1.11019038E-09
   1.90999992E-02  -9.98419014E-10
   1.91500001E-02  -8.81315576E-10
   1.92000009E-02  -7.58782537E-10
   1.92499999E-02  -6.30723918E-10
   1.93000007E-02  -4.97044739E-10
   1.93499997E-02  -3.57651214E-10
   1.94000006E-02  -2.12451029E-10
   1.94499996E-02  -6.13533252E-11
   1.95000004E-02   9.57311244E-11
   1.95499994E-02   2.58889937E-10
   1.96000002E-02   4.28208746E-10
   1.96499992E-02   6.03771255E-10
   1.97000001E-02   7.85659038E-10
   1.97500009E-02   9.73951697E-10
   1.97999999E-02   1.16872623E-09
   1.98500007E-02   1.37005718E-09
   1.98999997E-02   1.57801705E-09
   1.99500006E-02   1.79267501E-09
   1.99999996E-02   2.01409778E-09
   2.00500004E-02   2.24234897E-09
   2.00999994E-02   2.47748888E-09
   2.01500002E-02   2.71957479E-09
   2.01999992E-02   2.96866109E-09
   2.02500001E-02   3.22479776E-09
   2.03000009E-02   3.48803186E-09
   2.03499999E-02   3.75840647E-09
   2.04000007E-02   4.03596090E-09
   2.04499997E-02   4.32073000E-09
   2.05000006E-02   4.61274485E-09
   2.05499995E-02   4.91203211E-09
   2.06000004E-02   5.21861399E-09
   2.06499994E-02   5.53250867E-09
   2.07000002E-02   5.85372861E-09
   2.07499992E-02   6.18228135E-09
   2.08000001E-02   6.51817000E-09
   2.08500009E-02   6.86139279E-09
   2.08999999E-02   7.21194171E-09
   2.09500007E-02   7.56980434E-09
   2.09999997E-02   7.93496202E-09
   2.10500006E-02   8.30739122E-09
   2.10999995E-02   8.68706174E-09
   2.11500004E-02   9.07393716E-09
   2.11999994E-02   9.46797662E-09
   2.12500002E-02   9.86912951E-09
   2.12999992E-02   1.02773434E-08
   2.13500001E-02   1.06925553E-08
   2.14000009E-02   1.11146985E-08
   2.14499999E-02   1.15436976E-08
   2.15000007E-02   1.19794716E-08
   2.15499997E-02   1.24219310E-08
   2.16000006E-02   1.28709807E-08
   2.16499995E-02   1.33265177E-08
   2.17000004E-02   1.37884308E-08
   2.17499994E-02   1.42566039E-08
   2.18000002E-02   1.47309107E-08
   2.18499992E-02   1.52112172E-08
   2.19000001E-02   1.56973812E-08
   2.19500009E-02   1.61892526E-08
   2.19999999E-02   1.66866787E-08
   2.20500007E-02   1.71894907E-08
   2.20999997E-02   1.76975146E-08
   2.21500006E-02   1.82105691E-08
   2.21999995E-02   1.87284659E-08
   2.22500004E-02   1.92510008E-08
   2.22999994E-02   1.97779713E-08
   2.23500002E-02   2.03091588E-08
   2.23999992E-02   2.08443360E-08
   2.24500000E-02   2.13832703E-08
   2.25000009E-02   2.19257199E-08
   2.25499999E-02   2.24714309E-08
   2.26000007E-02   2.30201440E-08
   2.26499997E-02   2.35715873E-08
   2.27000006E-02   2.41254821E-08
   2.27499995E-02   2.46815404E-08
   2.28000004E-02   2.52394621E-08
   2.28499994E-02   2.57989434E-08
   2.29000002E-02   2.63596664E-08
   2.29499992E-02   2.69213043E-08
   2.30000000E-02   2.74835230E-08
   2.30500009E-02   2.80459780E-08
   2.30999999E-02   2.86083157E-08
   2.31500007E-02   2.91701738E-08
   2.31999997E-02   2.97311793E-08
   2.32500006E-02   3.02909484E-08
   2.32999995E-02   3.08490939E-08
   2.33500004E-02   3.14052109E-08
   2.33999994E-02   3.19588942E-08
   2.34500002E-02   3.25097211E-08
   2.34999992E-02   3.30572654E-08
   2.35500000E-02   3.36010899E-08
   2.36000009E-02   3.41407436E-08
   2.36499999E-02   3.46757787E-08
   2.37000007E-02   3.52057263E-08
   2.37499997E-02   3.57301140E-08
   2.38000005E-02   3.62484620E-08
   2.38499995E-02   3.67602802E-08
   2.39000004E-02   3.72650675E-08
   2.39499994E-02   3.77623195E-08
   2.40000002E-02   3.82515175E-08
   2.40499992E-02   3.87321464E-08
   2.41000000E-02   3.92036625E-08
   2.41500009E-02   3.96655331E-08
   2.41999999E-02   4.01172109E-08
   2.42500007E-02   4.05581417E-08
   2.42999997E-02   4.09877607E-08
   2.43500005E-02   4.14054995E-08
   2.43999995E-02   4.18107753E-08
   2.44500004E-02   4.22030162E-08
   2.44999994E-02   4.25816253E-08
   2.45500002E-02   4.29460130E-08
   2.45999992E-02   4.32955716E-08
   2.46500000E-02   4.36296972E-08
   2.47000009E-02   4.39477716E-08
   2.47499999E-02   4.42491768E-08
   2.48000007E-02   4.45332873E-08
   2.48499997E-02   4.47994744E-08
   2.49000005E-02   4.50471056E-08
   2.49499995E-02   4.52755451E-08
   2.50000004E-02   4.54841462E-08
   2.50499994E-02   4.56722589E-08
   2.51000002E-02   4.58392400E-08
   2.51499992E-02   4.59844358E-08
   2.52000000E-02   4.61071927E-08
   2.52500009E-02   4.62068499E-08
   2.52999999E-02   4.62827501E-08
   2.53500007E-02   4.63342253E-08
   2.53999997E-02   4.63606185E-08
   2.54500005E-02   4.63612615E-08
   2.54999995E-02   4.63354901E-08
   2.55500004E-02   4.62826435E-08
   2.55999994E-02   4.62020537E-08
   2.56500002E-02   4.60930529E-08
   2.56999992E-02   4.59549838E-08
   2.57500000E-02   4.57871785E-08
   2.58000009E-02   4.55889797E-08
   2.58499999E-02   4.53597302E-08
   2.59000007E-02   4.50987692E-08
   2.59499997E-02   4.48054500E-08
   2.60000005E-02   4.44791191E-08
   2.60499995E-02   4.41191368E-08
   2.61000004E-02   4.37248602E-08
   2.61499994E-02   4.32956533E-08
   2.62000002E-02   4.28308837E-08
   2.62499992E-02   4.23299333E-08
   2.63000000E-02   4.17921804E-08
   2.63500009E-02   4.12170138E-08
   2.63999999E-02   4.06038296E-08
   2.64500007E-02   3.99520346E-08
   2.64999997E-02   3.92610389E-08
   2.65500005E-02   3.85302634E-08
   2.65999995E-02   3.77591434E-08
   2.66500004E-02   3.69471174E-08
   2.66999993E-02   3.60936383E-08
   2.67500002E-02   3.51981697E-08
   2.67999992E-02   3.42601822E-08
   2.68500000E-02   3.32791643E-08
   2.69000009E-02   3.22546185E-08
   2.69499999E-02   3.11860546E-08
   2.70000007E-02   3.00729965E-08
   2.70499997E-02   2.89149842E-08
   2.71000005E-02   2.77115770E-08
   2.71499995E-02   2.64623417E-08
   2.72000004E-02   2.51668677E-08
   2.72499993E-02   2.38247555E-08
   2.73000002E-02   2.24356267E-08
   2.73499992E-02   2.09991207E-08
   2.74000000E-02   1.95148910E-08
   2.74500009E-02   1.79826145E-08
   2.74999999E-02   1.64019838E-08
   2.75500007E-02   1.47727128E-08
   2.75999997E-02   1.30945361E-08
   2.76500005E-02   1.13672085E-08
   2.76999995E-02   9.59050706E-09
   2.77500004E-02   7.76422926E-09
   2.77999993E-02   5.88819793E-09
   2.78500002E-02   3.96225719E-09
   2.78999992E-02   1.98627581E-09
   2.79500000E-02  -3.98535649E-11
   2.80000009E-02  -2.11621476E-09
   2.80499998E-02  -4.24286473E-09
   2.81000007E-02  -6.41983711E-09
   2.81499997E-02  -8.64713812E-09
   2.82000005E-02  -1.09247447E-08
   2.82499995E-02  -1.32526070E-08
   2.83000004E-02  -1.56306506E-08
   2.83499993E-02  -1.80587705E-08
   2.84000002E-02  -2.05368327E-08
   2.84499992E-02  -2.30646808E-08
   2.85000000E-02  -2.56421178E-08
   2.85500009E-02  -2.82689214E-08
   2.85999998E-02  -3.09448396E-08
   2.86500007E-02  -3.36695898E-08
   2.86999997E-02  -3.64428594E-08
   2.87500005E-02  -3.92643003E-08
   2.87999995E-02  -4.21335322E-08
   2.88500004E-02  -4.50501432E-08
   2.88999993E-02  -4.80136890E-08
   2.89500002E-02  -5.10236937E-08
   2.89999992E-02  -5.40796457E-08
   2.90500000E-02  -5.71810013E-08
   2.91000009E-02  -6.03271744E-08
   2.91499998E-02  -6.35175610E-08
   2.92000007E-02  -6.67514968E-08
   2.92499997E-02  -7.00283067E-08
   2.93000005E-02  -7.33472731E-08
   2.93499995E-02  -7.67076429E-08
   2.94000003E-02  -8.01086202E-08
   2.94499993E-02  -8.35493736E-08
   2.95000002E-02  -8.70290435E-08
   2.95499992E-02  -9.05467274E-08
   2.96000000E-02  -9.41014875E-08
   2.96500009E-02  -9.76923431E-08
   2.96999998E-02  -1.01318307E-07
   2.97500007E-02  -1.04978319E-07
   2.97999997E-02  -1.08671287E-07
   2.98500005E-02  -1.12396094E-07
   2.98999995E-02  -1.16151568E-07
   2.99500003E-02  -1.19936516E-07
   2.99999993E-02  -1.23749700E-07
   3.00500002E-02  -1.27589871E-07
   3.00999992E-02  -1.31455693E-07
   3.01500000E-02  -1.35345843E-07
   3.02000009E-02  -1.39258916E-07
   3.02499998E-02  -1.43193503E-07
   3.03000007E-02  -1.47148128E-07
   3.03499997E-02  -1.51121313E-07
   3.04000005E-02  -1.55111522E-07
   3.04499995E-02  -1.59117178E-07
   3.05000003E-02  -1.63136676E-07
   3.05499993E-02  -1.67168395E-07
   3.06000002E-02  -1.71210644E-07
   3.06499992E-02  -1.75261704E-07
   3.07000000E-02  -1.79319827E-07
   3.07500008E-02  -1.83383236E-07
   3.07999998E-02  -1.87450112E-07
   3.08500007E-02  -1.91518623E-07
   3.08999997E-02  -1.95586864E-07
   3.09500005E-02  -1.99652916E-07
   3.09999995E-02  -2.03714805E-07
   3.10500003E-02  -2.07770555E-07
   3.10999993E-02  -2.11818161E-07
   3.11500002E-02  -2.15855593E-07
   3.11999992E-02  -2.19880732E-07
   3.12500000E-02  -2.23891476E-07
   3.13000008E-02  -2.27885693E-07
   3.13500017E-02  -2.31861208E-07
   3.13999988E-02  -2.35815818E-07
   3.14499997E-02  -2.39747322E-07
   3.15000005E-02  -2.43653432E-07
   3.15500014E-02  -2.47531915E-07
   3.15999985E-02  -2.51380385E-07
   3.16499993E-02  -2.55196568E-07
   3.17000002E-02  -2.58978076E-07
   3.17500010E-02  -2.62722551E-07
   3.18000019E-02  -2.66427577E-07
   3.18499990E-02  -2.70090709E-07
   3.18999998E-02  -2.73709503E-07
   3.19500007E-02  -2.77281544E-07
   3.20000015E-02  -2.80804301E-07
   3.20499986E-02  -2.84275245E-07
   3.20999995E-02  -2.87691904E-07
   3.21500003E-02  -2.91051720E-07
   3.22000012E-02  -2.94352162E-07
   3.22499983E-02  -2.97590589E-07
   3.22999991E-02  -3.00764498E-07
   3.23500000E-02  -3.03871246E-07
   3.24000008E-02  -3.06908220E-07
   3.24500017E-02  -3.09872860E-07
   3.24999988E-02  -3.12762495E-07
   3.25499997E-02  -3.15574482E-07
   3.26000005E-02  -3.18306206E-07
   3.26500013E-02  -3.20955024E-07
   3.26999985E-02  -3.23518293E-07
   3.27499993E-02  -3.25993312E-07
   3.28000002E-02  -3.28377439E-07
   3.28500010E-02  -3.30668087E-07
   3.29000019E-02  -3.32862498E-07
   3.29499990E-02  -3.34958116E-07
   3.29999998E-02  -3.36952212E-07
   3.30500007E-02  -3.38842170E-07
   3.31000015E-02  -3.40625348E-07
   3.31499986E-02  -3.42299131E-07
   3.31999995E-02  -3.43860876E-07
   3.32500003E-02  -3.45307967E-07
   3.33000012E-02  -3.46637790E-07
   3.33499983E-02  -3.47847788E-07
   3.33999991E-02  -3.48935316E-07
   3.34500000E-02  -3.49897903E-07
   3.35000008E-02  -3.50732989E-07
   3.35500017E-02  -3.51437990E-07
   3.35999988E-02  -3.52010460E-07
   3.36499996E-02  -3.52447898E-07
   3.37000005E-02  -3.52747833E-07
   3.37500013E-02  -3.52907819E-07
   3.37999985E-02  -3.52925468E-07
   3.38499993E-02  -3.52798367E-07
   3.39000002E-02  -3.52524182E-07
   3.39500010E-02  -3.52100557E-07
   3.40000018E-02  -3.51525244E-07
   3.40499990E-02  -3.50795943E-07
   3.40999998E-02  -3.49910437E-07
   3.41500007E-02  -3.48866564E-07
   3.42000015E-02  -3.47662109E-07
   3.42499986E-02  -3.46294996E-07
   3.42999995E-02  -3.44763151E-07
   3.43500003E-02  -3.43064528E-07
   3.44000012E-02  -3.41197165E-07
   3.44499983E-02  -3.39159072E-07
   3.44999991E-02  -3.36948403E-07
   3.45500000E-02  -3.34563282E-07
   3.46000008E-02  -3.32001861E-07
   3.46500017E-02  -3.29262463E-07
   3.46999988E-02  -3.26343354E-07
   3.47499996E-02  -3.23242887E-07
   3.48000005E-02  -3.19959526E-07
   3.48500013E-02  -3.16491679E-07
   3.48999985E-02  -3.12837841E-07
   3.49499993E-02  -3.08996619E-07
   3.50000001E-02  -3.04966676E-07
   3.50500010E-02  -3.00746706E-07
   3.51000018E-02  -2.96335486E-07
   3.51499990E-02  -2.91731823E-07
   3.51999998E-02  -2.86934579E-07
   3.52500007E-02  -2.81942818E-07
   3.53000015E-02  -2.76755486E-07
   3.53499986E-02  -2.71371704E-07
   3.53999995E-02  -2.65790675E-07
   3.54500003E-02  -2.60011603E-07
   3.55000012E-02  -2.54033779E-07
   3.55499983E-02  -2.47856633E-07
   3.55999991E-02  -2.41479597E-07
   3.56500000E-02  -2.34902231E-07
   3.57000008E-02  -2.28124151E-07
   3.57500017E-02  -2.21145058E-07
   3.57999988E-02  -2.13964682E-07
   3.58499996E-02  -2.06582911E-07
   3.59000005E-02  -1.98999686E-07
   3.59500013E-02  -1.91214994E-07
   3.59999985E-02  -1.83228948E-07
   3.60499993E-02  -1.75041706E-07
   3.61000001E-02  -1.66653564E-07
   3.61500010E-02  -1.58064879E-07
   3.62000018E-02  -1.49276062E-07
   3.62499990E-02  -1.40287639E-07
   3.62999998E-02  -1.31100236E-07
   3.63500006E-02  -1.21714550E-07
   3.64000015E-02  -1.12131374E-07
   3.64499986E-02  -1.02351571E-07
   3.64999995E-02  -9.23761192E-08
   3.65500003E-02  -8.22060642E-08
   3.66000012E-02  -7.18425568E-08
   3.66499983E-02  -6.12868405E-08
   3.66999991E-02  -5.05402404E-08
   3.67500000E-02  -3.96041884E-08
   3.68000008E-02  -2.84801871E-08
   3.68500017E-02  -1.71698460E-08
   3.68999988E-02  -5.67486946E-09
   3.69499996E-02   6.00295635E-09
   3.70000005E-02   1.78617512E-08
   3.70500013E-02   2.98995211E-08
   3.70999984E-02   4.21142055E-08
   3.71499993E-02   5.45036443E-08
   3.72000001E-02   6.70655780E-08
   3.72500010E-02   7.97976583E-08
   3.73000018E-02   9.26974408E-08
   3.73499990E-02   1.05762396E-07
   3.73999998E-02   1.18989888E-07
   3.74500006E-02   1.32377195E-07
   3.75000015E-02   1.45921504E-07
   3.75499986E-02   1.59619916E-07
   3.75999995E-02   1.73469445E-07
   3.76500003E-02   1.87467009E-07
   3.77000012E-02   2.01609424E-07
   3.77499983E-02   2.15893408E-07
   3.77999991E-02   2.30315621E-07
   3.78500000E-02   2.44872609E-07
   3.79000008E-02   2.59560835E-07
   3.79500017E-02   2.74376731E-07
   3.79999988E-02   2.89316546E-07
   3.80499996E-02   3.04376499E-07
   3.81000005E-02   3.19552726E-07
   3.81500013E-02   3.34841246E-07
   3.81999984E-02   3.50237997E-07
   3.82499993E-02   3.65738885E-07
   3.83000001E-02   3.81339675E-07
   3.83500010E-02   3.97036132E-07
   3.84000018E-02   4.12823880E-07
   3.84499989E-02   4.28698456E-07
   3.84999998E-02   4.44655285E-07
   3.85500006E-02   4.60689876E-07
   3.86000015E-02   4.76797510E-07
   3.86499986E-02   4.92973413E-07
   3.86999995E-02   5.09212839E-07
   3.87500003E-02   5.25510814E-07
   3.88000011E-02   5.41862448E-07
   3.88499983E-02   5.58262684E-07
   3.88999991E-02   5.74706405E-07
   3.89500000E-02   5.91188495E-07
   3.90000008E-02   6.07703782E-07
   3.90500017E-02   6.24246866E-07
   3.90999988E-02   6.40812516E-07
   3.91499996E-02   6.57395333E-07
   3.92000005E-02   6.73989803E-07
   3.92500013E-02   6.90590468E-07
   3.92999984E-02   7.07191703E-07
   3.93499993E-02   7.23787934E-07
   3.94000001E-02   7.40373480E-07
   3.94500010E-02   7.56942597E-07
   3.95000018E-02   7.73489717E-07
   3.95499989E-02   7.90008812E-07
   3.95999998E-02   8.06494143E-07
   3.96500006E-02   8.22939739E-07
   3.97000015E-02   8.39339805E-07
   3.97499986E-02   8.55688313E-07
   3.97999994E-02   8.71979296E-07
   3.98500003E-02   8.88206614E-07
   3.99000011E-02   9.04364356E-07
   3.99499983E-02   9.20446325E-07
   3.99999991E-02   9.36446440E-07
   4.00500000E-02   9.52358675E-07
   4.01000008E-02   9.68176778E-07
   4.01500016E-02   9.83894438E-07
   4.01999988E-02   9.99505687E-07
   4.02499996E-02   1.01500416E-06
   4.03000005E-02   1.03038371E-06
   4.03500013E-02   1.04563821E-06
   4.03999984E-02   1.06076118E-06
   4.04499993E-02   1.07574647E-06
   4.05000001E-02   1.09058760E-06
   4.05500010E-02   1.10527867E-06
   4.06000018E-02   1.11981319E-06
   4.06499989E-02   1.13418491E-06
   4.06999998E-02   1.14838758E-06
   4.07500006E-02   1.16241506E-06
   4.08000015E-02   1.17626109E-06
   4.08499986E-02   1.18991932E-06
   4.08999994E-02   1.20338348E-06
   4.09500003E-02   1.21664743E-06
   4.10000011E-02   1.22970505E-06
   4.10499983E-02   1.24255007E-06
   4.10999991E-02   1.25517624E-06
   4.11499999E-02   1.26757755E-06
   4.12000008E-02   1.27974783E-06
   4.12500016E-02   1.29168109E-06
   4.12999988E-02   1.30337116E-06
   4.13499996E-02   1.31481215E-06
   4.14000005E-02   1.32599803E-06
   4.14500013E-02   1.33692265E-06
   4.14999984E-02   1.34758034E-06
   4.15499993E-02   1.35796517E-06
   4.16000001E-02   1.36807125E-06
   4.16500010E-02   1.37789266E-06
   4.17000018E-02   1.38742382E-06
   4.17499989E-02   1.39665883E-06
   4.17999998E-02   1.40559234E-06
   4.18500006E-02   1.41421833E-06
   4.19000015E-02   1.42253157E-06
   4.19499986E-02   1.43052648E-06
   4.19999994E-02   1.43819750E-06
   4.20500003E-02   1.44553940E-06
   4.21000011E-02   1.45254671E-06
   4.21499982E-02   1.45921433E-06
   4.21999991E-02   1.46553680E-06
   4.22499999E-02   1.47150911E-06
   4.23000008E-02   1.47712603E-06
   4.23500016E-02   1.48238269E-06
   4.23999988E-02   1.48727418E-06
   4.24499996E-02   1.49179562E-06
   4.25000004E-02   1.49594212E-06
   4.25500013E-02   1.49970890E-06
   4.25999984E-02   1.50309131E-06
   4.26499993E-02   1.50608491E-06
   4.27000001E-02   1.50868516E-06
   4.27500010E-02   1.51088750E-06
   4.28000018E-02   1.51268762E-06