   0.00000000       0.00000000    
   4.99999987E-05   0.00000000    
   9.99999975E-05   0.00000000    
   1.50000007E-04   0.00000000    
   1.99999995E-04   1.89568483E-26
   2.50000012E-04   1.90844866E-25
   3.00000014E-04   1.03791031E-24
   3.49999988E-04   4.06553194E-24
   3.99999990E-04   1.28697592E-23
   4.49999992E-04   3.49975963E-23
   5.00000024E-04   8.48511222E-23
   5.49999997E-04   1.87978687E-22
   6.00000028E-04   3.87150768E-22
   6.50000002E-04   7.50674080E-22
   6.99999975E-04   1.38345382E-21
   7.50000007E-04   2.44137107E-21
   7.99999980E-04   4.14960405E-21
   8.50000011E-04   6.82556241E-21
   8.99999985E-04   1.09072044E-20
   9.50000016E-04   1.69875126E-20
   1.00000005E-03   2.58559777E-20
   1.04999996E-03   3.85480447E-20
   1.09999999E-03   5.64034685E-20
   1.15000003E-03   8.11345274E-20
   1.20000006E-03   1.14905326E-19
   1.24999997E-03   1.60423201E-19
   1.30000000E-03   2.21043417E-19
   1.35000004E-03   3.00888421E-19
   1.39999995E-03   4.04982846E-19
   1.44999998E-03   5.39405511E-19
   1.50000001E-03   7.11459906E-19
   1.55000004E-03   9.29864332E-19
   1.59999996E-03   1.20496361E-18
   1.64999999E-03   1.54896249E-18
   1.70000002E-03   1.97618432E-18
   1.75000005E-03   2.50335397E-18
   1.79999997E-03   3.14990791E-18
   1.85000000E-03   3.93833387E-18
   1.90000003E-03   4.89453811E-18
   1.94999995E-03   6.04824579E-18
   2.00000009E-03   7.43343459E-18
   2.05000001E-03   9.08880001E-18
   2.09999993E-03   1.10582575E-17
   2.15000007E-03   1.33914801E-17
   2.19999999E-03   1.61444811E-17
   2.24999990E-03   1.93802230E-17
   2.30000005E-03   2.31692826E-17
   2.34999997E-03   2.75905448E-17
   2.40000011E-03   3.27319372E-17
   2.45000003E-03   3.86912408E-17
   2.49999994E-03   4.55768941E-17
   2.55000009E-03   5.35088878E-17
   2.60000001E-03   6.26196767E-17
   2.64999992E-03   7.30551491E-17
   2.70000007E-03   8.49756357E-17
   2.74999999E-03   9.85570281E-17
   2.79999990E-03   1.13991828E-16
   2.85000005E-03   1.31490337E-16
   2.89999996E-03   1.51281884E-16
   2.95000011E-03   1.73615986E-16
   3.00000003E-03   1.98763812E-16
   3.04999994E-03   2.27019468E-16
   3.10000009E-03   2.58701306E-16
   3.15000000E-03   2.94153526E-16
   3.19999992E-03   3.33747525E-16
   3.25000007E-03   3.77883579E-16
   3.29999998E-03   4.26992247E-16
   3.34999990E-03   4.81536166E-16
   3.40000005E-03   5.42011671E-16
   3.44999996E-03   6.08950356E-16
   3.50000011E-03   6.82920843E-16
   3.55000002E-03   7.64530668E-16
   3.59999994E-03   8.54427968E-16
   3.65000009E-03   9.53303289E-16
   3.70000000E-03   1.06189143E-15
   3.74999992E-03   1.18097346E-15
   3.80000006E-03   1.31137810E-15
   3.84999998E-03   1.45398425E-15
   3.89999989E-03   1.60972280E-15
   3.94999981E-03   1.77957768E-15
   4.00000019E-03   1.96458874E-15
   4.05000011E-03   2.16585372E-15
   4.10000002E-03   2.38452861E-15
   4.14999994E-03   2.62183125E-15
   4.19999985E-03   2.87904275E-15
   4.25000023E-03   3.15750759E-15
   4.30000015E-03   3.45863860E-15
   4.35000006E-03   3.78391683E-15
   4.39999998E-03   4.13489171E-15
   4.44999989E-03   4.51318424E-15
   4.49999981E-03   4.92049020E-15
   4.55000019E-03   5.35857903E-15
   4.60000010E-03   5.82929641E-15
   4.65000002E-03   6.33456427E-15
   4.69999993E-03   6.87638457E-15
   4.74999985E-03   7.45683761E-15
   4.80000023E-03   8.07808546E-15
   4.85000014E-03   8.74236935E-15
   4.90000006E-03   9.45201440E-15
   4.94999997E-03   1.02094287E-14
   4.99999989E-03   1.10171026E-14
   5.04999980E-03   1.18776093E-14
   5.10000018E-03   1.27936077E-14
   5.15000010E-03   1.37678387E-14
   5.20000001E-03   1.48031256E-14
   5.24999993E-03   1.59023761E-14
   5.29999984E-03   1.70685812E-14
   5.35000023E-03   1.83048089E-14
   5.40000014E-03   1.96142100E-14
   5.45000006E-03   2.10000118E-14
   5.49999997E-03   2.24655211E-14
   5.54999989E-03   2.40141176E-14
   5.59999980E-03   2.56492554E-14
   5.65000018E-03   2.73744548E-14
   5.70000010E-03   2.91933090E-14
   5.75000001E-03   3.11094771E-14
   5.79999993E-03   3.31266725E-14
   5.84999984E-03   3.52486730E-14
   5.90000022E-03   3.74793038E-14
   5.95000014E-03   3.98224341E-14
   6.00000005E-03   4.22819908E-14
   6.04999997E-03   4.48619278E-14
   6.09999988E-03   4.75662397E-14
   6.14999980E-03   5.03989449E-14
   6.20000018E-03   5.33640820E-14
   6.25000009E-03   5.64657167E-14
   6.30000001E-03   5.97079013E-14
   6.34999992E-03   6.30946914E-14
   6.39999984E-03   6.66301460E-14
   6.45000022E-03   7.03183036E-14
   6.50000013E-03   7.41631555E-14
   6.55000005E-03   7.81686930E-14
   6.59999996E-03   8.23388463E-14
   6.64999988E-03   8.66774846E-14
   6.69999979E-03   9.11884229E-14
   6.75000018E-03   9.58753815E-14
   6.80000009E-03   1.00741992E-13
   6.85000001E-03   1.05791799E-13
   6.89999992E-03   1.11028238E-13
   6.94999984E-03   1.16454589E-13
   7.00000022E-03   1.22074022E-13
   7.05000013E-03   1.27889534E-13
   7.10000005E-03   1.33903956E-13
   7.14999996E-03   1.40119917E-13
   7.19999988E-03   1.46539885E-13
   7.24999979E-03   1.53166108E-13
   7.30000017E-03   1.60000580E-13
   7.35000009E-03   1.67045021E-13
   7.40000000E-03   1.74300922E-13
   7.44999992E-03   1.81769462E-13
   7.49999983E-03   1.89451563E-13
   7.55000021E-03   1.97347780E-13
   7.60000013E-03   2.05458317E-13
   7.65000004E-03   2.13783025E-13
   7.69999996E-03   2.22321402E-13
   7.74999987E-03   2.31072512E-13
   7.79999979E-03   2.40034961E-13
   7.84999970E-03   2.49206986E-13
   7.89999962E-03   2.58586338E-13
   7.95000046E-03   2.68170279E-13
   8.00000038E-03   2.77955529E-13
   8.05000030E-03   2.87938266E-13
   8.10000021E-03   2.98114100E-13
   8.15000013E-03   3.08478151E-13
   8.20000004E-03   3.19024863E-13
   8.24999996E-03   3.29748029E-13
   8.29999987E-03   3.40640819E-13
   8.34999979E-03   3.51695778E-13
   8.39999970E-03   3.62904639E-13
   8.44999962E-03   3.74258540E-13
   8.50000046E-03   3.85747803E-13
   8.55000038E-03   3.97361939E-13
   8.60000029E-03   4.09089592E-13
   8.65000021E-03   4.20918779E-13
   8.70000012E-03   4.32836574E-13
   8.75000004E-03   4.44829015E-13
   8.79999995E-03   4.56881603E-13
   8.84999987E-03   4.68978589E-13
   8.89999978E-03   4.81103330E-13
   8.94999970E-03   4.93238371E-13
   8.99999961E-03   5.05365227E-13
   9.05000046E-03   5.17464272E-13
   9.10000037E-03   5.29514908E-13
   9.15000029E-03   5.41495397E-13
   9.20000020E-03   5.53383077E-13
   9.25000012E-03   5.65154043E-13
   9.30000003E-03   5.76783413E-13
   9.34999995E-03   5.88244893E-13
   9.39999986E-03   5.99511272E-13
   9.44999978E-03   6.10553979E-13
   9.49999969E-03   6.21343363E-13
   9.54999961E-03   6.31848415E-13
   9.60000046E-03   6.42036988E-13
   9.65000037E-03   6.51875689E-13
   9.70000029E-03   6.61329715E-13
   9.75000020E-03   6.70363179E-13
   9.80000012E-03   6.78938947E-13
   9.85000003E-03   6.87018259E-13
   9.89999995E-03   6.94561054E-13
   9.94999986E-03   7.01526185E-13
   9.99999978E-03   7.07871099E-13
   1.00499997E-02   7.13551776E-13
   1.00999996E-02   7.18523060E-13
   1.01500005E-02   7.22738330E-13
   1.02000004E-02   7.26149663E-13
   1.02500003E-02   7.28707676E-13
   1.03000002E-02   7.30361518E-13
   1.03500001E-02   7.31059256E-13
   1.04000000E-02   7.30747440E-13
   1.04499999E-02   7.29371262E-13
   1.04999999E-02   7.26874561E-13
   1.05499998E-02   7.23200308E-13
   1.05999997E-02   7.18289848E-13
   1.06499996E-02   7.12082899E-13
   1.07000005E-02   7.04518366E-13
   1.07500004E-02   6.95533746E-13
   1.08000003E-02   6.85065015E-13
   1.08500002E-02   6.73047122E-13
   1.09000001E-02   6.59413930E-13
   1.09500000E-02   6.44098219E-13
   1.09999999E-02   6.27031576E-13
   1.10499999E-02   6.08144232E-13
   1.10999998E-02   5.87365551E-13
   1.11499997E-02   5.64623977E-13
   1.11999996E-02   5.39847084E-13
   1.12500004E-02   5.12960930E-13
   1.13000004E-02   4.83890976E-13
   1.13500003E-02   4.52562060E-13
   1.14000002E-02   4.18898071E-13
   1.14500001E-02   3.82822327E-13
   1.15000000E-02   3.44257446E-13
   1.15499999E-02   3.03125282E-13
   1.15999999E-02   2.59346825E-13
   1.16499998E-02   2.12842954E-13
   1.16999997E-02   1.63534442E-13
   1.17499996E-02   1.11341403E-13
   1.18000004E-02   5.61836276E-14
   1.18500004E-02  -2.01934433E-15
   1.19000003E-02  -6.33480356E-14
   1.19500002E-02  -1.27882839E-13
   1.20000001E-02  -1.95704387E-13
   1.20500000E-02  -2.66892601E-13
   1.20999999E-02  -3.41527235E-13
   1.21499998E-02  -4.19688617E-13
   1.21999998E-02  -5.01455539E-13
   1.22499997E-02  -5.86906392E-13
   1.22999996E-02  -6.76119154E-13
   1.23500004E-02  -7.69170697E-13
   1.24000004E-02  -8.66137077E-13
   1.24500003E-02  -9.67093159E-13
   1.25000002E-02  -1.07211321E-12
   1.25500001E-02  -1.18127014E-12
   1.26000000E-02  -1.29463519E-12
   1.26499999E-02  -1.41227861E-12
   1.26999998E-02  -1.53426859E-12
   1.27499998E-02  -1.66067095E-12
   1.27999997E-02  -1.79154987E-12
   1.28499996E-02  -1.92696813E-12
   1.29000004E-02  -2.06698547E-12
   1.29500004E-02  -2.21165967E-12
   1.30000003E-02  -2.36104560E-12
   1.30500002E-02  -2.51519617E-12
   1.31000001E-02  -2.67416059E-12
   1.31500000E-02  -2.83798440E-12
   1.31999999E-02  -3.00671250E-12
   1.32499998E-02  -3.18038543E-12
   1.32999998E-02  -3.35903896E-12
   1.33499997E-02  -3.54270693E-12
   1.33999996E-02  -3.73141709E-12
   1.34500004E-02  -3.92519480E-12
   1.35000004E-02  -4.12406090E-12
   1.35500003E-02  -4.32803316E-12
   1.36000002E-02  -4.53712241E-12
   1.36500001E-02  -4.75133648E-12
   1.37000000E-02  -4.97067795E-12
   1.37499999E-02  -5.19514466E-12
   1.37999998E-02  -5.42472837E-12
   1.38499998E-02  -5.65941521E-12
   1.38999997E-02  -5.89918609E-12
   1.39499996E-02  -6.14401672E-12
   1.40000004E-02  -6.39387631E-12
   1.40500003E-02  -6.64872844E-12
   1.41000003E-02  -6.90852974E-12
   1.41500002E-02  -7.17322946E-12
   1.42000001E-02  -7.44277123E-12
   1.42500000E-02  -7.71709259E-12
   1.42999999E-02  -7.99612199E-12
   1.43499998E-02  -8.27978137E-12
   1.43999998E-02  -8.56798747E-12
   1.44499997E-02  -8.86064486E-12
   1.44999996E-02  -9.15765293E-12
   1.45500004E-02  -9.45890241E-12
   1.46000003E-02  -9.76427619E-12
   1.46500003E-02  -1.00736485E-11
   1.47000002E-02  -1.03868875E-11
   1.47500001E-02  -1.07038484E-11
   1.48000000E-02  -1.10243802E-11
   1.48499999E-02  -1.13483225E-11
   1.48999998E-02  -1.16755060E-11
   1.49499997E-02  -1.20057532E-11
   1.49999997E-02  -1.23388730E-11
   1.50499996E-02  -1.26746677E-11
   1.51000004E-02  -1.30129275E-11
   1.51500003E-02  -1.33534373E-11
   1.52000003E-02  -1.36959680E-11
   1.52500002E-02  -1.40402820E-11
   1.53000001E-02  -1.43861294E-11
   1.53500000E-02  -1.47332511E-11
   1.53999999E-02  -1.50813771E-11
   1.54499998E-02  -1.54302265E-11
   1.54999997E-02  -1.57795079E-11
   1.55499997E-02  -1.61289211E-11
   1.55999996E-02  -1.64781539E-11
   1.56500004E-02  -1.68268784E-11
   1.56999994E-02  -1.71747616E-11
   1.57500003E-02  -1.75214565E-11
   1.57999992E-02  -1.78666075E-11
   1.58500001E-02  -1.82098434E-11
   1.59000009E-02  -1.85507842E-11
   1.59499999E-02  -1.88890379E-11
   1.60000008E-02  -1.92242056E-11
   1.60499997E-02  -1.95558673E-11
   1.61000006E-02  -1.98835982E-11
   1.61499996E-02  -2.02069646E-11
   1.62000004E-02  -2.05255153E-11
   1.62499994E-02  -2.08387890E-11
   1.63000003E-02  -2.11463139E-11
   1.63499992E-02  -2.14476110E-11
   1.64000001E-02  -2.17421827E-11
   1.64500009E-02  -2.20295275E-11
   1.64999999E-02  -2.23091302E-11
   1.65500008E-02  -2.25804601E-11
   1.65999997E-02  -2.28429810E-11
   1.66500006E-02  -2.30961431E-11
   1.66999996E-02  -2.33393877E-11
   1.67500004E-02  -2.35721477E-11
   1.67999994E-02  -2.37938402E-11
   1.68500002E-02  -2.40038787E-11
   1.68999992E-02  -2.42016598E-11
   1.69500001E-02  -2.43865726E-11
   1.70000009E-02  -2.45579997E-11
   1.70499999E-02  -2.47153149E-11
   1.71000008E-02  -2.48578762E-11
   1.71499997E-02  -2.49850418E-11
   1.72000006E-02  -2.50961543E-11
   1.72499996E-02  -2.51905510E-11
   1.73000004E-02  -2.52675623E-11
   1.73499994E-02  -2.53265083E-11
   1.74000002E-02  -2.53667018E-11
   1.74499992E-02  -2.53874543E-11
   1.75000001E-02  -2.53880614E-11
   1.75500009E-02  -2.53678190E-11
   1.75999999E-02  -2.53260173E-11
   1.76500008E-02  -2.52619384E-11
   1.76999997E-02  -2.51748587E-11
   1.77500006E-02  -2.50640533E-11
   1.77999996E-02  -2.49287917E-11
   1.78500004E-02  -2.47683436E-11
   1.78999994E-02  -2.45819719E-11
   1.79500002E-02  -2.43689357E-11
   1.79999992E-02  -2.41284943E-11
   1.80500001E-02  -2.38599036E-11
   1.81000009E-02  -2.35624211E-11
   1.81499999E-02  -2.32353043E-11
   1.82000007E-02  -2.28778090E-11
   1.82499997E-02  -2.24891945E-11
   1.83000006E-02  -2.20687149E-11
   1.83499996E-02  -2.16156364E-11
   1.84000004E-02  -2.11292182E-11
   1.84499994E-02  -2.06087283E-11
   1.85000002E-02  -2.00534415E-11
   1.85499992E-02  -1.94626312E-11
   1.86000001E-02  -1.88355789E-11
   1.86500009E-02  -1.81715736E-11
   1.86999999E-02  -1.74699109E-11
   1.87500007E-02  -1.67298952E-11
   1.87999997E-02  -1.59508379E-11
   1.88500006E-02  -1.51320588E-11
   1.88999996E-02  -1.42728876E-11
   1.89500004E-02  -1.33726693E-11
   1.89999994E-02  -1.24307613E-11
   1.90500002E-02  -1.14465286E-11
   1.90999992E-02  -1.04193520E-11
   1.91500001E-02  -9.34862777E-12
   1.92000009E-02  -8.23376697E-12
   1.92499999E-02  -7.07419626E-12
   1.93000007E-02  -5.86936055E-12
   1.93499997E-02  -4.61872120E-12
   1.94000006E-02  -3.32176127E-12
   1.94499996E-02  -1.97798310E-12
   1.95000004E-02  -5.86908831E-13
   1.95499994E-02   8.51917278E-13
   1.96000002E-02   2.33892810E-12
   1.96499992E-02   3.87453481E-12
   1.97000001E-02   5.45912057E-12
   1.97500009E-02   7.09304056E-12
   1.97999999E-02   8.77662613E-12
   1.98500007E-02   1.05101821E-11
   1.98999997E-02   1.22939827E-11
   1.99500006E-02   1.41282715E-11
   1.99999996E-02   1.60132636E-11
   2.00500004E-02   1.79491404E-11
   2.00999994E-02   1.99360493E-11
   2.01500002E-02   2.19741048E-11
   2.01999992E-02   2.40633867E-11
   2.02500001E-02   2.62039401E-11
   2.03000009E-02   2.83957684E-11
   2.03499999E-02   3.06388422E-11
   2.04000007E-02   3.29330868E-11
   2.04499997E-02   3.52783948E-11
   2.05000006E-02   3.76746100E-11
   2.05499995E-02   4.01215450E-11
   2.06000004E-02   4.26189570E-11
   2.06499994E-02   4.51665649E-11
   2.07000002E-02   4.77640358E-11
   2.07499992E-02   5.04110018E-11
   2.08000001E-02   5.31070396E-11
   2.08500009E-02   5.58516774E-11
   2.08999999E-02   5.86444018E-11
   2.09500007E-02   6.14846368E-11
   2.09999997E-02   6.43717718E-11
   2.10500006E-02   6.73051406E-11
   2.10999995E-02   7.02840078E-11
   2.11500004E-02   7.33075961E-11
   2.11999994E-02   7.63750799E-11
   2.12500002E-02   7.94855570E-11
   2.12999992E-02   8.26380978E-11
   2.13500001E-02   8.58316890E-11
   2.14000009E-02   8.90652829E-11
   2.14499999E-02   9.23377486E-11
   2.15000007E-02   9.56479132E-11
   2.15499997E-02   9.89945348E-11
   2.16000006E-02   1.02376316E-10
   2.16499995E-02   1.05791896E-10
   2.17000004E-02   1.09239846E-10
   2.17499994E-02   1.12718689E-10
   2.18000002E-02   1.16226868E-10
   2.18499992E-02   1.19762769E-10
   2.19000001E-02   1.23324698E-10
   2.19500009E-02   1.26910926E-10
   2.19999999E-02   1.30519665E-10
   2.20500007E-02   1.34148997E-10
   2.20999997E-02   1.37797010E-10
   2.21500006E-02   1.41461676E-10
   2.21999995E-02   1.45140899E-10
   2.22500004E-02   1.48832557E-10
   2.22999994E-02   1.52534443E-10
   2.23500002E-02   1.56244268E-10
   2.23999992E-02   1.59959671E-10
   2.24500000E-02   1.63678265E-10
   2.25000009E-02   1.67397526E-10
   2.25499999E-02   1.71114928E-10
   2.26000007E-02   1.74827819E-10
   2.26499997E-02   1.78533521E-10
   2.27000006E-02   1.82229287E-10
   2.27499995E-02   1.85912272E-10
   2.28000004E-02   1.89579574E-10
   2.28499994E-02   1.93228239E-10
   2.29000002E-02   1.96855227E-10
   2.29499992E-02   2.00457456E-10
   2.30000000E-02   2.04031750E-10
   2.30500009E-02   2.07574874E-10
   2.30999999E-02   2.11083526E-10
   2.31500007E-02   2.14554347E-10
   2.31999997E-02   2.17983909E-10
   2.32500006E-02   2.21368729E-10
   2.32999995E-02   2.24705227E-10
   2.33500004E-02   2.27989821E-10
   2.33999994E-02   2.31218808E-10
   2.34500002E-02   2.34388453E-10
   2.34999992E-02   2.37494940E-10
   2.35500000E-02   2.40534453E-10
   2.36000009E-02   2.43503023E-10
   2.36499999E-02   2.46396736E-10
   2.37000007E-02   2.49211513E-10
   2.37499997E-02   2.51943272E-10
   2.38000005E-02   2.54587906E-10
   2.38499995E-02   2.57141225E-10
   2.39000004E-02   2.59598981E-10
   2.39499994E-02   2.61956901E-10
   2.40000002E-02   2.64210681E-10
   2.40499992E-02   2.66355910E-10
   2.41000000E-02   2.68388201E-10
   2.41500009E-02   2.70303058E-10
   2.41999999E-02   2.72096012E-10
   2.42500007E-02   2.73762540E-10
   2.42999997E-02   2.75298090E-10
   2.43500005E-02   2.76697998E-10
   2.43999995E-02   2.77957685E-10
   2.44500004E-02   2.79072487E-10
   2.44999994E-02   2.80037687E-10
   2.45500002E-02   2.80848567E-10
   2.45999992E-02   2.81500434E-10
   2.46500000E-02   2.81988516E-10
   2.47000009E-02   2.82308066E-10
   2.47499999E-02   2.82454282E-10
   2.48000007E-02   2.82422336E-10
   2.48499997E-02   2.82207480E-10
   2.49000005E-02   2.81804885E-10
   2.49499995E-02   2.81209750E-10
   2.50000004E-02   2.80417273E-10
   2.50499994E-02   2.79422624E-10
   2.51000002E-02   2.78221030E-10
   2.51499992E-02   2.76807688E-10
   2.52000000E-02   2.75177825E-10
   2.52500009E-02   2.73326667E-10
   2.52999999E-02   2.71249495E-10
   2.53500007E-02   2.68941591E-10
   2.53999997E-02   2.66398237E-10
   2.54500005E-02   2.63614797E-10
   2.54999995E-02   2.60586608E-10
   2.55500004E-02   2.57309118E-10
   2.55999994E-02   2.53777777E-10
   2.56500002E-02   2.49988086E-10
   2.56999992E-02   2.45935577E-10
   2.57500000E-02   2.41615838E-10
   2.58000009E-02   2.37024567E-10
   2.58499999E-02   2.32157418E-10
   2.59000007E-02   2.27010216E-10
   2.59499997E-02   2.21578769E-10
   2.60000005E-02   2.15859039E-10
   2.60499995E-02   2.09846987E-10
   2.61000004E-02   2.03538714E-10
   2.61499994E-02   1.96930389E-10
   2.62000002E-02   1.90018251E-10
   2.62499992E-02   1.82798651E-10
   2.63000000E-02   1.75268050E-10
   2.63500009E-02   1.67423006E-10
   2.63999999E-02   1.59260174E-10
   2.64500007E-02   1.50776308E-10
   2.64999997E-02   1.41968270E-10
   2.65500005E-02   1.32833036E-10
   2.65999995E-02   1.23367774E-10
   2.66500004E-02   1.13569716E-10
   2.66999993E-02   1.03436273E-10
   2.67500002E-02   9.29650038E-11
   2.67999992E-02   8.21535687E-11
   2.68500000E-02   7.09997616E-11
   2.69000009E-02   5.95015565E-11
   2.69499999E-02   4.76570866E-11
   2.70000007E-02   3.54646555E-11
   2.70499997E-02   2.29227210E-11
   2.71000005E-02   1.00299179E-11
   2.71499995E-02  -3.21498817E-12
   2.72000004E-02  -1.68130180E-11
   2.72499993E-02  -3.07649739E-11
   2.73000002E-02  -4.50715403E-11
   2.73499992E-02  -5.97331629E-11
   2.74000000E-02  -7.47500672E-11
   2.74500009E-02  -9.01223124E-11
   2.74999999E-02  -1.05849746E-10
   2.75500007E-02  -1.21931992E-10
   2.75999997E-02  -1.38368469E-10
   2.76500005E-02  -1.55158428E-10
   2.76999995E-02  -1.72300785E-10
   2.77500004E-02  -1.89794278E-10
   2.77999993E-02  -2.07637449E-10
   2.78500002E-02  -2.25828564E-10
   2.78999992E-02  -2.44365694E-10
   2.79500000E-02  -2.63246591E-10
   2.80000009E-02  -2.82468743E-10
   2.80499998E-02  -3.02029513E-10
   2.81000007E-02  -3.21925903E-10
   2.81499997E-02  -3.42154693E-10
   2.82000005E-02  -3.62712388E-10
   2.82499995E-02  -3.83595239E-10
   2.83000004E-02  -4.04799166E-10
   2.83499993E-02  -4.26319868E-10
   2.84000002E-02  -4.48152793E-10
   2.84499992E-02  -4.70293027E-10
   2.85000000E-02  -4.92735464E-10
   2.85500009E-02  -5.15474552E-10
   2.85999998E-02  -5.38504630E-10
   2.86500007E-02  -5.61819702E-10
   2.86999997E-02  -5.85413329E-10
   2.87500005E-02  -6.09279016E-10
   2.87999995E-02  -6.33409714E-10
   2.88500004E-02  -6.57798260E-10
   2.88999993E-02  -6.82437107E-10
   2.89500002E-02  -7.07318371E-10
   2.89999992E-02  -7.32433836E-10
   2.90500000E-02  -7.57775120E-10
   2.91000009E-02  -7.83333398E-10
   2.91499998E-02  -8.09099510E-10
   2.92000007E-02  -8.35064184E-10
   2.92499997E-02  -8.61217542E-10
   2.93000005E-02  -8.87549534E-10
   2.93499995E-02  -9.14049725E-10
   2.94000003E-02  -9.40707512E-10
   2.94499993E-02  -9.67511737E-10
   2.95000002E-02  -9.94451077E-10
   2.95499992E-02  -1.02151387E-09
   2.96000000E-02  -1.04868825E-09
   2.96500009E-02  -1.07596165E-09
   2.96999998E-02  -1.10332143E-09
   2.97500007E-02  -1.13075460E-09
   2.97999997E-02  -1.15824805E-09
   2.98500005E-02  -1.18578791E-09
   2.98999995E-02  -1.21336041E-09
   2.99500003E-02  -1.24095123E-09
   2.99999993E-02  -1.26854560E-09
   3.00500002E-02  -1.29612876E-09
   3.00999992E-02  -1.32368538E-09
   3.01500000E-02  -1.35120015E-09
   3.02000009E-02  -1.37865697E-09
   3.02499998E-02  -1.40603973E-09
   3.03000007E-02  -1.43333201E-09
   3.03499997E-02  -1.46051693E-09
   3.04000005E-02  -1.48757739E-09
   3.04499995E-02  -1.51449597E-09
   3.05000003E-02  -1.54125512E-09
   3.05499993E-02  -1.56783686E-09
   3.06000002E-02  -1.59422275E-09
   3.06499992E-02  -1.62039437E-09
   3.07000000E-02  -1.64633285E-09
   3.07500008E-02  -1.67201908E-09
   3.07999998E-02  -1.69743364E-09
   3.08500007E-02  -1.72255699E-09
   3.08999997E-02  -1.74736903E-09
   3.09500005E-02  -1.77184978E-09
   3.09999995E-02  -1.79597870E-09
   3.10500003E-02  -1.81973514E-09
   3.10999993E-02  -1.84309823E-09
   3.11500002E-02  -1.86604665E-09
   3.11999992E-02  -1.88855953E-09
   3.12500000E-02  -1.91061456E-09
   3.13000008E-02  -1.93219063E-09
   3.13500017E-02  -1.95326533E-09
   3.13999988E-02  -1.97381644E-09
   3.14499997E-02  -1.99382200E-09
   3.15000005E-02  -2.01325889E-09
   3.15500014E-02  -2.03210471E-09
   3.15999985E-02  -2.05033657E-09
   3.16499993E-02  -2.06793138E-09
   3.17000002E-02  -2.08486584E-09
   3.17500010E-02  -2.10111661E-09
   3.18000019E-02  -2.11666018E-09
   3.18499990E-02  -2.13147300E-09
   3.18999998E-02  -2.14553153E-09
   3.19500007E-02  -2.15881180E-09
   3.20000015E-02  -2.17129004E-09
   3.20499986E-02  -2.18294205E-09
   3.20999995E-02  -2.19374408E-09
   3.21500003E-02  -2.20367191E-09
   3.22000012E-02  -2.21270158E-09
   3.22499983E-02  -2.22080865E-09
   3.22999991E-02  -2.22796914E-09
   3.23500000E-02  -2.23415864E-09
   3.24000008E-02  -2.23935337E-09
   3.24500017E-02  -2.24352892E-09
   3.24999988E-02  -2.24666108E-09
   3.25499997E-02  -2.24872609E-09
   3.26000005E-02  -2.24969954E-09
   3.26500013E-02  -2.24955743E-09
   3.26999985E-02  -2.24827601E-09
   3.27499993E-02  -2.24583174E-09
   3.28000002E-02  -2.24220065E-09
   3.28500010E-02  -2.23735896E-09
   3.29000019E-02  -2.23128382E-09
   3.29499990E-02  -2.22395147E-09
   3.29999998E-02  -2.21533902E-09
   3.30500007E-02  -2.20542362E-09
   3.31000015E-02  -2.19418239E-09
   3.31499986E-02  -2.18159291E-09
   3.31999995E-02  -2.16763274E-09
   3.32500003E-02  -2.15228013E-09
   3.33000012E-02  -2.13551288E-09
   3.33499983E-02  -2.11730966E-09
   3.33999991E-02  -2.09764939E-09
   3.34500000E-02  -2.07651119E-09
   3.35000008E-02  -2.05387396E-09
   3.35500017E-02  -2.02971817E-09
   3.35999988E-02  -2.00402317E-09
   3.36499996E-02  -1.97677008E-09
   3.37000005E-02  -1.94793937E-09
   3.37500013E-02  -1.91751259E-09
   3.37999985E-02  -1.88547089E-09
   3.38499993E-02  -1.85179683E-09
   3.39000002E-02  -1.81647308E-09
   3.39500010E-02  -1.77948223E-09
   3.40000018E-02  -1.74080816E-09
   3.40499990E-02  -1.70043479E-09
   3.40999998E-02  -1.65834668E-09
   3.41500007E-02  -1.61452907E-09
   3.42000015E-02  -1.56896740E-09
   3.42499986E-02  -1.52164803E-09
   3.42999995E-02  -1.47255763E-09
   3.43500003E-02  -1.42168388E-09
   3.44000012E-02  -1.36901468E-09
   3.44499983E-02  -1.31453870E-09
   3.44999991E-02  -1.25824540E-09
   3.45500000E-02  -1.20012478E-09
   3.46000008E-02  -1.14016740E-09
   3.46500017E-02  -1.07836484E-09
   3.46999988E-02  -1.01470921E-09
   3.47499996E-02  -9.49193502E-10
   3.48000005E-02  -8.81811402E-10
   3.48500013E-02  -8.12557244E-10
   3.48999985E-02  -7.41426254E-10
   3.49499993E-02  -6.68414601E-10
   3.50000001E-02  -5.93519234E-10
   3.50500010E-02  -5.16737875E-10
   3.51000018E-02  -4.38068970E-10
   3.51499990E-02  -3.57512048E-10
   3.51999998E-02  -2.75067469E-10
   3.52500007E-02  -1.90736621E-10
   3.53000015E-02  -1.04521690E-10
   3.53499986E-02  -1.64257045E-11
   3.53999995E-02   7.35472377E-11
   3.54500003E-02   1.65391978E-10
   3.55000012E-02   2.59102545E-10
   3.55499983E-02   3.54671903E-10
   3.55999991E-02   4.52091892E-10
   3.56500000E-02   5.51353407E-10
   3.57000008E-02   6.52446375E-10
   3.57500017E-02   7.55359608E-10
   3.57999988E-02   8.60080840E-10
   3.58499996E-02   9.66596581E-10
   3.59000005E-02   1.07489273E-09
   3.59500013E-02   1.18495369E-09
   3.59999985E-02   1.29676281E-09
   3.60499993E-02   1.41030221E-09
   3.61000001E-02   1.52555280E-09
   3.61500010E-02   1.64249458E-09
   3.62000018E-02   1.76110659E-09
   3.62499990E-02   1.88136595E-09
   3.62999998E-02   2.00324934E-09
   3.63500006E-02   2.12673212E-09
   3.64000015E-02   2.25178809E-09
   3.64499986E-02   2.37839015E-09
   3.64999995E-02   2.50650944E-09
   3.65500003E-02   2.63611644E-09
   3.66000012E-02   2.76718048E-09
   3.66499983E-02   2.89966939E-09
   3.66999991E-02   3.03355008E-09
   3.67500000E-02   3.16878723E-09
   3.68000008E-02   3.30534533E-09
   3.68500017E-02   3.44318751E-09
   3.68999988E-02   3.58227492E-09
   3.69499996E-02   3.72256759E-09
   3.70000005E-02   3.86402510E-09
   3.70500013E-02   4.00660527E-09
   3.70999984E-02   4.15026413E-09
   3.71499993E-02   4.29495683E-09
   3.72000001E-02   4.44063764E-09
   3.72500010E-02   4.58725902E-09
   3.73000018E-02   4.73477213E-09
   3.73499990E-02   4.88312724E-09
   3.73999998E-02   5.03227282E-09
   3.74500006E-02   5.18215648E-09
   3.75000015E-02   5.33272448E-09
   3.75499986E-02   5.48392132E-09
   3.75999995E-02   5.63569102E-09
   3.76500003E-02   5.78797543E-09
   3.77000012E-02   5.94071636E-09
   3.77499983E-02   6.09385298E-09
   3.77999991E-02   6.24732444E-09
   3.78500000E-02   6.40106723E-09
   3.79000008E-02   6.55501742E-09
   3.79500017E-02   6.70911060E-09
   3.79999988E-02   6.86327972E-09
   3.80499996E-02   7.01745817E-09
   3.81000005E-02   7.17157622E-09
   3.81500013E-02   7.32556371E-09
   3.81999984E-02   7.47935047E-09
   3.82499993E-02   7.63286234E-09
   3.83000001E-02   7.78602782E-09
   3.83500010E-02   7.93877142E-09
   3.84000018E-02   8.09101675E-09
   3.84499989E-02   8.24268831E-09
   3.84999998E-02   8.39370617E-09
   3.85500006E-02   8.54399307E-09
   3.86000015E-02   8.69346728E-09
   3.86499986E-02   8.84204887E-09
   3.86999995E-02   8.98965435E-09
   3.87500003E-02   9.13620202E-09
   3.88000011E-02   9.28160571E-09
   3.88499983E-02   9.42578193E-09
   3.88999991E-02   9.56864454E-09
   3.89500000E-02   9.71010472E-09
   3.90000008E-02   9.85007631E-09
   3.90500017E-02   9.98846961E-09
   3.90999988E-02   1.01251958E-08
   3.91499996E-02   1.02601634E-08
   3.92000005E-02   1.03932809E-08
   3.92500013E-02   1.05244569E-08
   3.92999984E-02   1.06535980E-08
   3.93499993E-02   1.07806111E-08
   3.94000001E-02   1.09054019E-08
   3.94500010E-02   1.10278746E-08
   3.95000018E-02   1.11479350E-08
   3.95499989E-02   1.12654863E-08
   3.95999998E-02   1.13804335E-08
   3.96500006E-02   1.14926770E-08
   3.97000015E-02   1.16021202E-08
   3.97499986E-02   1.17086643E-08
   3.97999994E-02   1.18122117E-08
   3.98500003E-02   1.19126629E-08
   3.99000011E-02   1.20099184E-08
   3.99499983E-02   1.21038797E-08
   3.99999991E-02   1.21944455E-08
   4.00500000E-02   1.22815154E-08
   4.01000008E-02   1.23649899E-08
   4.01500016E-02   1.24447688E-08
   4.01999988E-02   1.25207507E-08
   4.02499996E-02   1.25928352E-08
   4.03000005E-02   1.26609221E-08
   4.03500013E-02   1.27249100E-08
   4.03999984E-02   1.27846995E-08
   4.04499993E-02   1.28401885E-08
   4.05000001E-02   1.28912774E-08
   4.05500010E-02   1.29378659E-08
   4.06000018E-02   1.29798536E-08
   4.06499989E-02   1.30171420E-08
   4.06999998E-02   1.30496307E-08
   4.07500006E-02   1.30772220E-08
   4.08000015E-02   1.30998163E-08
   4.08499986E-02   1.31173152E-08
   4.08999994E-02   1.31296218E-08
   4.09500003E-02   1.31366384E-08
   4.10000011E-02   1.31382700E-08
   4.10499983E-02   1.31344198E-08
   4.10999991E-02   1.31249944E-08
   4.11499999E-02   1.31098972E-08
   4.12000008E-02   1.30890374E-08
   4.12500016E-02   1.30623219E-08
   4.12999988E-02   1.30296591E-08
   4.13499996E-02   1.29909585E-08
   4.14000005E-02   1.29461295E-08
   4.14500013E-02   1.28950859E-08
   4.14999984E-02   1.28377398E-08
   4.15499993E-02   1.27740050E-08
   4.16000001E-02   1.27037971E-08
   4.16500010E-02   1.26270328E-08
   4.17000018E-02   1.25436292E-08
   4.17499989E-02   1.24535067E-08
   4.17999998E-02   1.23565878E-08
   4.18500006E-02   1.22527926E-08
   4.19000015E-02   1.21420456E-08
   4.19499986E-02   1.20242749E-08
   4.19999994E-02   1.18994059E-08
   4.20500003E-02   1.17673684E-08
   4.21000011E-02   1.16280949E-08
   4.21499982E-02   1.14815171E-08
   4.21999991E-02   1.13275700E-08
   4.22499999E-02   1.11661906E-08
   4.23000008E-02   1.09973186E-08
   4.23500016E-02   1.08208953E-08
   4.23999988E-02   1.06368647E-08
   4.24499996E-02   1.04451718E-08
   4.25000004E-02   1.02457642E-08
   4.25500013E-02   1.00385931E-08
   4.25999984E-02   9.82361126E-09
   4.26499993E-02   9.60077351E-09
   4.27000001E-02   9.37003808E-09
   4.27500010E-02   9.13136589E-09
   4.28000018E-02   8.88471963E-09