   0.00000000       0.00000000    
   4.99999987E-05   0.00000000    
   9.99999975E-05   0.00000000    
   1.50000007E-04   0.00000000    
   1.99999995E-04   6.84959604E-27
   2.50000012E-04   6.88783299E-26
   3.00000014E-04   3.73988774E-25
   3.49999988E-04   1.46226344E-24
   3.99999990E-04   4.62024670E-24
   4.49999992E-04   1.25409123E-23
   5.00000024E-04   3.03515716E-23
   5.49999997E-04   6.71307314E-23
   6.00000028E-04   1.38052880E-22
   6.50000002E-04   2.67322065E-22
   6.99999975E-04   4.92073762E-22
   7.50000007E-04   8.67444982E-22
   7.99999980E-04   1.47303570E-21
   8.50000011E-04   2.42100175E-21
   8.99999985E-04   3.86604750E-21
   9.50000016E-04   6.01757861E-21
   1.00000005E-03   9.15437876E-21
   1.04999996E-03   1.36420743E-20
   1.09999999E-03   1.99538049E-20
   1.15000003E-03   2.86943720E-20
   1.20000006E-03   4.06283652E-20
   1.24999997E-03   5.67126208E-20
   1.30000000E-03   7.81334127E-20
   1.35000004E-03   1.06349131E-19
   1.39999995E-03   1.43138202E-19
   1.44999998E-03   1.90653667E-19
   1.50000001E-03   2.51484413E-19
   1.55000004E-03   3.28722661E-19
   1.59999996E-03   4.26040589E-19
   1.64999999E-03   5.47775287E-19
   1.70000002E-03   6.99021281E-19
   1.75000005E-03   8.85733523E-19
   1.79999997E-03   1.11484177E-18
   1.85000000E-03   1.39437205E-18
   1.90000003E-03   1.73358176E-18
   1.94999995E-03   2.14310958E-18
   2.00000009E-03   2.63513149E-18
   2.05000001E-03   3.22353546E-18
   2.09999993E-03   3.92410429E-18
   2.15000007E-03   4.75472432E-18
   2.19999999E-03   5.73559882E-18
   2.24999990E-03   6.88947069E-18
   2.30000005E-03   8.24187377E-18
   2.34999997E-03   9.82140327E-18
   2.40000011E-03   1.16600124E-17
   2.45000003E-03   1.37932913E-17
   2.49999994E-03   1.62607843E-17
   2.55000009E-03   1.91063551E-17
   2.60000001E-03   2.23785244E-17
   2.64999992E-03   2.61308721E-17
   2.70000007E-03   3.04224092E-17
   2.74999999E-03   3.53180413E-17
   2.79999990E-03   4.08889704E-17
   2.85000005E-03   4.72131533E-17
   2.89999996E-03   5.43758558E-17
   2.95000011E-03   6.24701225E-17
   3.00000003E-03   7.15973061E-17
   3.04999994E-03   8.18676666E-17
   3.10000009E-03   9.34009334E-17
   3.15000000E-03   1.06326921E-16
   3.19999992E-03   1.20786104E-16
   3.25000007E-03   1.36930393E-16
   3.29999998E-03   1.54923782E-16
   3.34999990E-03   1.74943048E-16
   3.40000005E-03   1.97178338E-16
   3.44999996E-03   2.21834197E-16
   3.50000011E-03   2.49130257E-16
   3.55000002E-03   2.79301888E-16
   3.59999994E-03   3.12601188E-16
   3.65000009E-03   3.49297779E-16
   3.70000000E-03   3.89679704E-16
   3.74999992E-03   4.34054437E-16
   3.80000006E-03   4.82749488E-16
   3.84999998E-03   5.36113622E-16
   3.89999989E-03   5.94517973E-16
   3.94999981E-03   6.58356517E-16
   4.00000019E-03   7.28047317E-16
   4.05000011E-03   8.04033955E-16
   4.10000002E-03   8.86785898E-16
   4.14999994E-03   9.76800195E-16
   4.19999985E-03   1.07460201E-15
   4.25000023E-03   1.18074551E-15
   4.30000015E-03   1.29581535E-15
   4.35000006E-03   1.42042862E-15
   4.39999998E-03   1.55523423E-15
   4.44999989E-03   1.70091543E-15
   4.49999981E-03   1.85818954E-15
   4.55000019E-03   2.02781128E-15
   4.60000010E-03   2.21057176E-15
   4.65000002E-03   2.40729961E-15
   4.69999993E-03   2.61886345E-15
   4.74999985E-03   2.84617237E-15
   4.80000023E-03   3.09017757E-15
   4.85000014E-03   3.35187179E-15
   4.90000006E-03   3.63229073E-15
   4.94999997E-03   3.93251648E-15
   4.99999989E-03   4.25367622E-15
   5.04999980E-03   4.59694225E-15
   5.10000018E-03   4.96353768E-15
   5.15000010E-03   5.35473223E-15
   5.20000001E-03   5.77184386E-15
   5.24999993E-03   6.21624309E-15
   5.29999984E-03   6.68934826E-15
   5.35000023E-03   7.19263109E-15
   5.40000014E-03   7.72761795E-15
   5.45000006E-03   8.29588727E-15
   5.49999997E-03   8.89906706E-15
   5.54999989E-03   9.53884290E-15
   5.59999980E-03   1.02169580E-14
   5.65000018E-03   1.09352038E-14
   5.70000010E-03   1.16954345E-14
   5.75000001E-03   1.24995576E-14
   5.79999993E-03   1.33495272E-14
   5.84999984E-03   1.42473635E-14
   5.90000022E-03   1.51951409E-14
   5.95000014E-03   1.61949803E-14
   6.00000005E-03   1.72490670E-14
   6.04999997E-03   1.83596373E-14
   6.09999988E-03   1.95289850E-14
   6.14999980E-03   2.07594562E-14
   6.20000018E-03   2.20534413E-14
   6.25000009E-03   2.34133883E-14
   6.30000001E-03   2.48417941E-14
   6.34999992E-03   2.63412119E-14
   6.39999984E-03   2.79142317E-14
   6.45000022E-03   2.95634963E-14
   6.50000013E-03   3.12916976E-14
   6.55000005E-03   3.31015597E-14
   6.59999996E-03   3.49958540E-14
   6.64999988E-03   3.69773961E-14
   6.69999979E-03   3.90490320E-14
   6.75000018E-03   4.12136281E-14
   6.80000009E-03   4.34740982E-14
   6.85000001E-03   4.58333932E-14
   6.89999992E-03   4.82944813E-14
   6.94999984E-03   5.08603305E-14
   7.00000022E-03   5.35339324E-14
   7.05000013E-03   5.63183194E-14
   7.10000005E-03   5.92165002E-14
   7.14999996E-03   6.22314903E-14
   7.19999988E-03   6.53663254E-14
   7.24999979E-03   6.86240615E-14
   7.30000017E-03   7.20077142E-14
   7.35000009E-03   7.55202650E-14
   7.40000000E-03   7.91647021E-14
   7.44999992E-03   8.29439395E-14
   7.49999983E-03   8.68609451E-14
   7.55000021E-03   9.09186057E-14
   7.60000013E-03   9.51197603E-14
   7.65000004E-03   9.94672145E-14
   7.69999996E-03   1.03963686E-13
   7.74999987E-03   1.08611816E-13
   7.79999979E-03   1.13414208E-13
   7.84999970E-03   1.18373383E-13
   7.89999962E-03   1.23491752E-13
   7.95000046E-03   1.28771641E-13
   8.00000038E-03   1.34215284E-13
   8.05000030E-03   1.39824743E-13
   8.10000021E-03   1.45602023E-13
   8.15000013E-03   1.51548994E-13
   8.20000004E-03   1.57667296E-13
   8.24999996E-03   1.63958474E-13
   8.29999987E-03   1.70423896E-13
   8.34999979E-03   1.77064797E-13
   8.39999970E-03   1.83882152E-13
   8.44999962E-03   1.90876760E-13
   8.50000046E-03   1.98049259E-13
   8.55000038E-03   2.05400042E-13
   8.60000029E-03   2.12929270E-13
   8.65000021E-03   2.20636796E-13
   8.70000012E-03   2.28522252E-13
   8.75000004E-03   2.36585003E-13
   8.79999995E-03   2.44824208E-13
   8.84999987E-03   2.53238538E-13
   8.89999978E-03   2.61826612E-13
   8.94999970E-03   2.70586505E-13
   8.99999961E-03   2.79516102E-13
   9.05000046E-03   2.88612911E-13
   9.10000037E-03   2.97873976E-13
   9.15000029E-03   3.07296045E-13
   9.20000020E-03   3.16875378E-13
   9.25000012E-03   3.26607881E-13
   9.30000003E-03   3.36489192E-13
   9.34999995E-03   3.46514402E-13
   9.39999986E-03   3.56678093E-13
   9.44999978E-03   3.66974436E-13
   9.49999969E-03   3.77397034E-13
   9.54999961E-03   3.87939138E-13
   9.60000046E-03   3.98593376E-13
   9.65000037E-03   4.09352023E-13
   9.70000029E-03   4.20206513E-13
   9.75000020E-03   4.31147820E-13
   9.80000012E-03   4.42166594E-13
   9.85000003E-03   4.53252805E-13
   9.89999995E-03   4.64395829E-13
   9.94999986E-03   4.75584416E-13
   9.99999978E-03   4.86806233E-13
   1.00499997E-02   4.98048976E-13
   1.00999996E-02   5.09299525E-13
   1.01500005E-02   5.20544057E-13
   1.02000004E-02   5.31767718E-13
   1.02500003E-02   5.42955221E-13
   1.03000002E-02   5.54090899E-13
   1.03500001E-02   5.65157946E-13
   1.04000000E-02   5.76138692E-13
   1.04499999E-02   5.87015137E-13
   1.04999999E-02   5.97768579E-13
   1.05499998E-02   6.08379395E-13
   1.05999997E-02   6.18826930E-13
   1.06499996E-02   6.29090042E-13
   1.07000005E-02   6.39146776E-13
   1.07500004E-02   6.48974255E-13
   1.08000003E-02   6.58548899E-13
   1.08500002E-02   6.67846366E-13
   1.09000001E-02   6.76841450E-13
   1.09500000E-02   6.85508399E-13
   1.09999999E-02   6.93820164E-13
   1.10499999E-02   7.01748718E-13
   1.10999998E-02   7.09265925E-13
   1.11499997E-02   7.16342025E-13
   1.11999996E-02   7.22946822E-13
   1.12500004E-02   7.29049687E-13
   1.13000004E-02   7.34618258E-13
   1.13500003E-02   7.39619900E-13
   1.14000002E-02   7.44021110E-13
   1.14500001E-02   7.47787737E-13
   1.15000000E-02   7.50884381E-13
   1.15499999E-02   7.53274559E-13
   1.15999999E-02   7.54922112E-13
   1.16499998E-02   7.55789799E-13
   1.16999997E-02   7.55838751E-13
   1.17499996E-02   7.55030045E-13
   1.18000004E-02   7.53323510E-13
   1.18500004E-02   7.50677894E-13
   1.19000003E-02   7.47051997E-13
   1.19500002E-02   7.42404077E-13
   1.20000001E-02   7.36691361E-13
   1.20500000E-02   7.29870049E-13
   1.20999999E-02   7.21895959E-13
   1.21499998E-02   7.12723988E-13
   1.21999998E-02   7.02308491E-13
   1.22499997E-02   6.90603987E-13
   1.22999996E-02   6.77563745E-13
   1.23500004E-02   6.63140387E-13
   1.24000004E-02   6.47286261E-13
   1.24500003E-02   6.29953717E-13
   1.25000002E-02   6.11094671E-13
   1.25500001E-02   5.90660171E-13
   1.26000000E-02   5.68600776E-13
   1.26499999E-02   5.44866669E-13
   1.26999998E-02   5.19408843E-13
   1.27499998E-02   4.92176937E-13
   1.27999997E-02   4.63120102E-13
   1.28499996E-02   4.32188844E-13
   1.29000004E-02   3.99332395E-13
   1.29500004E-02   3.64500883E-13
   1.30000003E-02   3.27643376E-13
   1.30500002E-02   2.88709107E-13
   1.31000001E-02   2.47648581E-13
   1.31500000E-02   2.04412374E-13
   1.31999999E-02   1.58951682E-13
   1.32499998E-02   1.11215860E-13
   1.32999998E-02   6.11560837E-14
   1.33499997E-02   8.72426233E-15
   1.33999996E-02  -4.61285639E-14
   1.34500004E-02  -1.03449028E-13
   1.35000004E-02  -1.63283138E-13
   1.35500003E-02  -2.25675923E-13
   1.36000002E-02  -2.90672190E-13
   1.36500001E-02  -3.58317190E-13
   1.37000000E-02  -4.28654020E-13
   1.37499999E-02  -5.01723392E-13
   1.37999998E-02  -5.77567237E-13
   1.38499998E-02  -6.56226592E-13
   1.38999997E-02  -7.37737183E-13
   1.39499996E-02  -8.22134895E-13
   1.40000004E-02  -9.09456104E-13
   1.40500003E-02  -9.99734692E-13
   1.41000003E-02  -1.09300232E-12
   1.41500002E-02  -1.18928977E-12
   1.42000001E-02  -1.28862470E-12
   1.42500000E-02  -1.39103247E-12
   1.42999999E-02  -1.49653759E-12
   1.43499998E-02  -1.60515991E-12
   1.43999998E-02  -1.71691914E-12
   1.44499997E-02  -1.83183351E-12
   1.44999996E-02  -1.94991744E-12
   1.45500004E-02  -2.07118133E-12
   1.46000003E-02  -2.19563473E-12
   1.46500003E-02  -2.32328523E-12
   1.47000002E-02  -2.45413650E-12
   1.47500001E-02  -2.58818791E-12
   1.48000000E-02  -2.72543533E-12
   1.48499999E-02  -2.86587290E-12
   1.48999998E-02  -3.00949023E-12
   1.49499997E-02  -3.15627472E-12
   1.49999997E-02  -3.30620882E-12
   1.50499996E-02  -3.45927280E-12
   1.51000004E-02  -3.61544171E-12
   1.51500003E-02  -3.77468456E-12
   1.52000003E-02  -3.93696924E-12
   1.52500002E-02  -4.10225890E-12
   1.53000001E-02  -4.27051276E-12
   1.53500000E-02  -4.44168704E-12
   1.53999999E-02  -4.61573184E-12
   1.54499998E-02  -4.79258994E-12
   1.54999997E-02  -4.97220407E-12
   1.55499997E-02  -5.15450876E-12
   1.55999996E-02  -5.33943636E-12
   1.56500004E-02  -5.52691356E-12
   1.56999994E-02  -5.71685841E-12
   1.57500003E-02  -5.90918720E-12
   1.57999992E-02  -6.10381017E-12
   1.58500001E-02  -6.30063146E-12
   1.59000009E-02  -6.49955220E-12
   1.59499999E-02  -6.70046614E-12
   1.60000008E-02  -6.90325748E-12
   1.60499997E-02  -7.10780827E-12
   1.61000006E-02  -7.31399576E-12
   1.61499996E-02  -7.52169160E-12
   1.62000004E-02  -7.73075874E-12
   1.62499994E-02  -7.94105667E-12
   1.63000003E-02  -8.15243532E-12
   1.63499992E-02  -8.36474206E-12
   1.64000001E-02  -8.57781554E-12
   1.64500009E-02  -8.79148750E-12
   1.64999999E-02  -9.00558707E-12
   1.65500008E-02  -9.21993298E-12
   1.65999997E-02  -9.43434220E-12
   1.66500006E-02  -9.64862218E-12
   1.66999996E-02  -9.86257343E-12
   1.67500004E-02  -1.00759869E-11
   1.67999994E-02  -1.02886510E-11
   1.68500002E-02  -1.05003471E-11
   1.68999992E-02  -1.07108523E-11
   1.69500001E-02  -1.09199360E-11
   1.70000009E-02  -1.11273568E-11
   1.70499999E-02  -1.13328678E-11
   1.71000008E-02  -1.15362208E-11
   1.71499997E-02  -1.17371607E-11
   1.72000006E-02  -1.19354214E-11
   1.72499996E-02  -1.21307296E-11
   1.73000004E-02  -1.23228077E-11
   1.73499994E-02  -1.25113739E-11
   1.74000002E-02  -1.26961393E-11
   1.74499992E-02  -1.28768073E-11
   1.75000001E-02  -1.30530734E-11
   1.75500009E-02  -1.32246323E-11
   1.75999999E-02  -1.33911684E-11
   1.76500008E-02  -1.35523632E-11
   1.76999997E-02  -1.37078942E-11
   1.77500006E-02  -1.38574274E-11
   1.77999996E-02  -1.40006270E-11
   1.78500004E-02  -1.41371498E-11
   1.78999994E-02  -1.42666521E-11
   1.79500002E-02  -1.43887827E-11
   1.79999992E-02  -1.45031834E-11
   1.80500001E-02  -1.46094907E-11
   1.81000009E-02  -1.47073412E-11
   1.81499999E-02  -1.47963673E-11
   1.82000007E-02  -1.48761958E-11
   1.82499997E-02  -1.49464451E-11
   1.83000006E-02  -1.50067372E-11
   1.83499996E-02  -1.50566851E-11
   1.84000004E-02  -1.50959037E-11
   1.84499994E-02  -1.51240027E-11
   1.85000002E-02  -1.51405902E-11
   1.85499992E-02  -1.51452705E-11
   1.86000001E-02  -1.51376463E-11
   1.86500009E-02  -1.51173206E-11
   1.86999999E-02  -1.50838907E-11
   1.87500007E-02  -1.50369595E-11
   1.87999997E-02  -1.49761262E-11
   1.88500006E-02  -1.49009850E-11
   1.88999996E-02  -1.48111332E-11
   1.89500004E-02  -1.47061720E-11
   1.89999994E-02  -1.45857024E-11
   1.90500002E-02  -1.44493211E-11
   1.90999992E-02  -1.42966307E-11
   1.91500001E-02  -1.41272367E-11
   1.92000009E-02  -1.39407453E-11
   1.92499999E-02  -1.37367661E-11
   1.93000007E-02  -1.35149105E-11
   1.93499997E-02  -1.32747936E-11
   1.94000006E-02  -1.30160370E-11
   1.94499996E-02  -1.27382644E-11
   1.95000004E-02  -1.24411046E-11
   1.95499994E-02  -1.21241931E-11
   1.96000002E-02  -1.17871737E-11
   1.96499992E-02  -1.14296914E-11
   1.97000001E-02  -1.10514011E-11
   1.97500009E-02  -1.06519672E-11
   1.97999999E-02  -1.02310582E-11
   1.98500007E-02  -9.78835415E-12
   1.98999997E-02  -9.32354367E-12
   1.99500006E-02  -8.83632143E-12
   1.99999996E-02  -8.32639686E-12
   2.00500004E-02  -7.79348894E-12
   2.00999994E-02  -7.23732749E-12
   2.01500002E-02  -6.65765576E-12
   2.01999992E-02  -6.05422743E-12
   2.02500001E-02  -5.42680874E-12
   2.03000009E-02  -4.77518068E-12
   2.03499999E-02  -4.09913726E-12
   2.04000007E-02  -3.39848939E-12
   2.04499997E-02  -2.67306229E-12
   2.05000006E-02  -1.92269789E-12
   2.05499995E-02  -1.14725276E-12
   2.06000004E-02  -3.46601898E-13
   2.06499994E-02   4.79364270E-13
   2.07000002E-02   1.33073489E-12
   2.07499992E-02   2.20757809E-12
   2.08000001E-02   3.10994459E-12
   2.08500009E-02   4.03786640E-12
   2.08999999E-02   4.99135629E-12
   2.09500007E-02   5.97040386E-12
   2.09999997E-02   6.97497485E-12
   2.10500006E-02   8.00501245E-12
   2.10999995E-02   9.06043990E-12
   2.11500004E-02   1.01411553E-11
   2.11999994E-02   1.12470293E-11
   2.12500002E-02   1.23779164E-11
   2.12999992E-02   1.35336395E-11
   2.13500001E-02   1.47139956E-11
   2.14000009E-02   1.59187594E-11
   2.14499999E-02   1.71476739E-11
   2.15000007E-02   1.84004617E-11
   2.15499997E-02   1.96768088E-11
   2.16000006E-02   2.09763838E-11
   2.16499995E-02   2.22988121E-11
   2.17000004E-02   2.36437033E-11
   2.17499994E-02   2.50106307E-11
   2.18000002E-02   2.63991329E-11
   2.18499992E-02   2.78087258E-11
   2.19000001E-02   2.92388891E-11
   2.19500009E-02   3.06890867E-11
   2.19999999E-02   3.21587305E-11
   2.20500007E-02   3.36471996E-11
   2.20999997E-02   3.51538590E-11
   2.21500006E-02   3.66780217E-11
   2.21999995E-02   3.82189801E-11
   2.22500004E-02   3.97759915E-11
   2.22999994E-02   4.13482720E-11
   2.23500002E-02   4.29350062E-11
   2.23999992E-02   4.45353615E-11
   2.24500000E-02   4.61484427E-11
   2.25000009E-02   4.77733374E-11
   2.25499999E-02   4.94091018E-11
   2.26000007E-02   5.10547507E-11
   2.26499997E-02   5.27092675E-11
   2.27000006E-02   5.43715836E-11
   2.27499995E-02   5.60406166E-11
   2.28000004E-02   5.77152492E-11
   2.28499994E-02   5.93943089E-11
   2.29000002E-02   6.10766021E-11
   2.29499992E-02   6.27609145E-11
   2.30000000E-02   6.44459694E-11
   2.30500009E-02   6.61304830E-11
   2.30999999E-02   6.78131093E-11
   2.31500007E-02   6.94924882E-11
   2.31999997E-02   7.11672180E-11
   2.32500006E-02   7.28358623E-11
   2.32999995E-02   7.44969572E-11
   2.33500004E-02   7.61489968E-11
   2.33999994E-02   7.77904546E-11
   2.34500002E-02   7.94197763E-11
   2.34999992E-02   8.10353590E-11
   2.35500000E-02   8.26355789E-11
   2.36000009E-02   8.42187639E-11
   2.36499999E-02   8.57832416E-11
   2.37000007E-02   8.73272912E-11
   2.37499997E-02   8.88491711E-11
   2.38000005E-02   9.03471326E-11
   2.38499995E-02   9.18193507E-11
   2.39000004E-02   9.32640007E-11
   2.39499994E-02   9.46792367E-11
   2.40000002E-02   9.60631991E-11
   2.40499992E-02   9.74139658E-11
   2.41000000E-02   9.87296356E-11
   2.41500009E-02   1.00008245E-10
   2.41999999E-02   1.01247843E-10
   2.42500007E-02   1.02446447E-10
   2.42999997E-02   1.03602064E-10
   2.43500005E-02   1.04712662E-10
   2.43999995E-02   1.05776207E-10
   2.44500004E-02   1.06790667E-10
   2.44999994E-02   1.07753979E-10
   2.45500002E-02   1.08664071E-10
   2.45999992E-02   1.09518832E-10
   2.46500000E-02   1.10316194E-10
   2.47000009E-02   1.11054076E-10
   2.47499999E-02   1.11730340E-10
   2.48000007E-02   1.12342871E-10
   2.48499997E-02   1.12889600E-10
   2.49000005E-02   1.13368398E-10
   2.49499995E-02   1.13777127E-10
   2.50000004E-02   1.14113705E-10
   2.50499994E-02   1.14376009E-10
   2.51000002E-02   1.14561943E-10
   2.51499992E-02   1.14669413E-10
   2.52000000E-02   1.14696343E-10
   2.52500009E-02   1.14640672E-10
   2.52999999E-02   1.14500312E-10
   2.53500007E-02   1.14273237E-10
   2.53999997E-02   1.13957434E-10
   2.54500005E-02   1.13550870E-10
   2.54999995E-02   1.13051582E-10
   2.55500004E-02   1.12457599E-10
   2.55999994E-02   1.11767019E-10
   2.56500002E-02   1.10977935E-10
   2.56999992E-02   1.10088466E-10
   2.57500000E-02   1.09096780E-10
   2.58000009E-02   1.08001066E-10
   2.58499999E-02   1.06799569E-10
   2.59000007E-02   1.05490568E-10
   2.59499997E-02   1.04072334E-10
   2.60000005E-02   1.02543293E-10
   2.60499995E-02   1.00901829E-10
   2.61000004E-02   9.91463925E-11
   2.61499994E-02   9.72754932E-11
   2.62000002E-02   9.52877013E-11
   2.62499992E-02   9.31816430E-11
   2.63000000E-02   9.09559719E-11
   2.63500009E-02   8.86094600E-11
   2.63999999E-02   8.61409208E-11
   2.64500007E-02   8.35492300E-11
   2.64999997E-02   8.08333470E-11
   2.65500005E-02   7.79922932E-11
   2.65999995E-02   7.50251528E-11
   2.66500004E-02   7.19310930E-11
   2.66999993E-02   6.87093438E-11
   2.67500002E-02   6.53592319E-11
   2.67999992E-02   6.18801815E-11
   2.68500000E-02   5.82717069E-11
   2.69000009E-02   5.45333882E-11
   2.69499999E-02   5.06648994E-11
   2.70000007E-02   4.66660426E-11
   2.70499997E-02   4.25366894E-11
   2.71000005E-02   3.82768296E-11
   2.71499995E-02   3.38865463E-11
   2.72000004E-02   2.93659957E-11
   2.72499993E-02   2.47154658E-11
   2.73000002E-02   1.99353450E-11
   2.73499992E-02   1.50261643E-11
   2.74000000E-02   9.98856900E-12
   2.74500009E-02   4.82329151E-12
   2.74999999E-02  -4.68822463E-13
   2.75500007E-02  -5.88681664E-12
   2.75999997E-02  -1.14295838E-11
   2.76500005E-02  -1.70958664E-11
   2.76999995E-02  -2.28843316E-11
   2.77500004E-02  -2.87935266E-11
   2.77999993E-02  -3.48217982E-11
   2.78500002E-02  -4.09673996E-11
   2.78999992E-02  -4.72284885E-11
   2.79500000E-02  -5.36030352E-11
   2.80000009E-02  -6.00889269E-11
   2.80499998E-02  -6.66838737E-11
   2.81000007E-02  -7.33854436E-11
   2.81499997E-02  -8.01910621E-11
   2.82000005E-02  -8.70980302E-11
   2.82499995E-02  -9.41035166E-11
   2.83000004E-02  -1.01204510E-10
   2.83499993E-02  -1.08397881E-10
   2.84000002E-02  -1.15680347E-10
   2.84499992E-02  -1.23048446E-10
   2.85000000E-02  -1.30498598E-10
   2.85500009E-02  -1.38027090E-10
   2.85999998E-02  -1.45630064E-10
   2.86500007E-02  -1.53303439E-10
   2.86999997E-02  -1.61043040E-10
   2.87500005E-02  -1.68844549E-10
   2.87999995E-02  -1.76703499E-10
   2.88500004E-02  -1.84615226E-10
   2.88999993E-02  -1.92574942E-10
   2.89500002E-02  -2.00577721E-10
   2.89999992E-02  -2.08618511E-10
   2.90500000E-02  -2.16692025E-10
   2.91000009E-02  -2.24792865E-10
   2.91499998E-02  -2.32915520E-10
   2.92000007E-02  -2.41054343E-10
   2.92499997E-02  -2.49203463E-10
   2.93000005E-02  -2.57356886E-10
   2.93499995E-02  -2.65508504E-10
   2.94000003E-02  -2.73652101E-10
   2.94499993E-02  -2.81781265E-10
   2.95000002E-02  -2.89889390E-10
   2.95499992E-02  -2.97969871E-10
   2.96000000E-02  -3.06015824E-10
   2.96500009E-02  -3.14020338E-10
   2.96999998E-02  -3.21976279E-10
   2.97500007E-02  -3.29876459E-10
   2.97999997E-02  -3.37713552E-10
   2.98500005E-02  -3.45480061E-10
   2.98999995E-02  -3.53168383E-10
   2.99500003E-02  -3.60770858E-10
   2.99999993E-02  -3.68279657E-10
   3.00500002E-02  -3.75686815E-10
   3.00999992E-02  -3.82984366E-10
   3.01500000E-02  -3.90164095E-10
   3.02000009E-02  -3.97217759E-10
   3.02499998E-02  -4.04137002E-10
   3.03000007E-02  -4.10913359E-10
   3.03499997E-02  -4.17538393E-10
   3.04000005E-02  -4.24003416E-10
   3.04499995E-02  -4.30299768E-10
   3.05000003E-02  -4.36418707E-10
   3.05499993E-02  -4.42351322E-10
   3.06000002E-02  -4.48088705E-10
   3.06499992E-02  -4.53621918E-10
   3.07000000E-02  -4.58941968E-10
   3.07500008E-02  -4.64039779E-10
   3.07999998E-02  -4.68906247E-10
   3.08500007E-02  -4.73532213E-10
   3.08999997E-02  -4.77908491E-10
   3.09500005E-02  -4.82025864E-10
   3.09999995E-02  -4.85875118E-10
   3.10500003E-02  -4.89446927E-10
   3.10999993E-02  -4.92732133E-10
   3.11500002E-02  -4.95721408E-10
   3.11999992E-02  -4.98405650E-10
   3.12500000E-02  -5.00775588E-10
   3.13000008E-02  -5.02822006E-10
   3.13500017E-02  -5.04535691E-10
   3.13999988E-02  -5.05907483E-10
   3.14499997E-02  -5.06928277E-10
   3.15000005E-02  -5.07589082E-10
   3.15500014E-02  -5.07880793E-10
   3.15999985E-02  -5.07794640E-10
   3.16499993E-02  -5.07321629E-10
   3.17000002E-02  -5.06453102E-10
   3.17500010E-02  -5.05180286E-10
   3.18000019E-02  -5.03494690E-10
   3.18499990E-02  -5.01387876E-10
   3.18999998E-02  -4.98851460E-10
   3.19500007E-02  -4.95877228E-10
   3.20000015E-02  -4.92457020E-10
   3.20499986E-02  -4.88582952E-10
   3.20999995E-02  -4.84247142E-10
   3.21500003E-02  -4.79441986E-10
   3.22000012E-02  -4.74160045E-10
   3.22499983E-02  -4.68393990E-10
   3.22999991E-02  -4.62136690E-10
   3.23500000E-02  -4.55381260E-10
   3.24000008E-02  -4.48121013E-10
   3.24500017E-02  -4.40349451E-10
   3.24999988E-02  -4.32060276E-10
   3.25499997E-02  -4.23247548E-10
   3.26000005E-02  -4.13905438E-10
   3.26500013E-02  -4.04028366E-10
   3.26999985E-02  -3.93611144E-10
   3.27499993E-02  -3.82648774E-10
   3.28000002E-02  -3.71136510E-10
   3.28500010E-02  -3.59069913E-10
   3.29000019E-02  -3.46444901E-10
   3.29499990E-02  -3.33257644E-10
   3.29999998E-02  -3.19504673E-10
   3.30500007E-02  -3.05182796E-10
   3.31000015E-02  -2.90289209E-10
   3.31499986E-02  -2.74821388E-10
   3.31999995E-02  -2.58777166E-10
   3.32500003E-02  -2.42154879E-10
   3.33000012E-02  -2.24953112E-10
   3.33499983E-02  -2.07170864E-10
   3.33999991E-02  -1.88807497E-10
   3.34500000E-02  -1.69862804E-10
   3.35000008E-02  -1.50336979E-10
   3.35500017E-02  -1.30230660E-10
   3.35999988E-02  -1.09544887E-10
   3.36499996E-02  -8.82811532E-11
   3.37000005E-02  -6.64413594E-11
   3.37500013E-02  -4.40279063E-11
   3.37999985E-02  -2.10436321E-11
   3.38499993E-02   2.50815319E-12
   3.39000002E-02   2.66236772E-11
   3.39500010E-02   5.12987083E-11
   3.40000018E-02   7.65285127E-11
   3.40499990E-02   1.02307836E-10
   3.40999998E-02   1.28630898E-10
   3.41500007E-02   1.55491439E-10
   3.42000015E-02   1.82882681E-10
   3.42499986E-02   2.10797366E-10
   3.42999995E-02   2.39227610E-10
   3.43500003E-02   2.68165046E-10
   3.44000012E-02   2.97600888E-10
   3.44499983E-02   3.27525701E-10
   3.44999991E-02   3.57929464E-10
   3.45500000E-02   3.88801574E-10
   3.46000008E-02   4.20130986E-10
   3.46500017E-02   4.51905985E-10
   3.46999988E-02   4.84114360E-10
   3.47499996E-02   5.16743370E-10
   3.48000005E-02   5.49779611E-10
   3.48500013E-02   5.83209259E-10
   3.48999985E-02   6.17017715E-10
   3.49499993E-02   6.51189824E-10
   3.50000001E-02   6.85709933E-10
   3.50500010E-02   7.20561888E-10
   3.51000018E-02   7.55728868E-10
   3.51499990E-02   7.91193389E-10
   3.51999998E-02   8.26937407E-10
   3.52500007E-02   8.62942329E-10
   3.53000015E-02   8.99188946E-10
   3.53499986E-02   9.35657551E-10
   3.53999995E-02   9.72327774E-10
   3.54500003E-02   1.00917896E-09
   3.55000012E-02   1.04618925E-09
   3.55499983E-02   1.08333675E-09
   3.55999991E-02   1.12059906E-09
   3.56500000E-02   1.15795273E-09
   3.57000008E-02   1.19537391E-09
   3.57500017E-02   1.23283861E-09
   3.57999988E-02   1.27032185E-09
   3.58499996E-02   1.30779820E-09
   3.59000005E-02   1.34524158E-09
   3.59500013E-02   1.38262557E-09
   3.59999985E-02   1.41992318E-09
   3.60499993E-02   1.45710688E-09
   3.61000001E-02   1.49414869E-09
   3.61500010E-02   1.53102031E-09
   3.62000018E-02   1.56769231E-09
   3.62499990E-02   1.60413538E-09
   3.62999998E-02   1.64031966E-09
   3.63500006E-02   1.67621450E-09
   3.64000015E-02   1.71178882E-09
   3.64499986E-02   1.74701142E-09
   3.64999995E-02   1.78185033E-09
   3.65500003E-02   1.81627358E-09
   3.66000012E-02   1.85024851E-09
   3.66499983E-02   1.88374205E-09
   3.66999991E-02   1.91672100E-09
   3.67500000E-02   1.94915151E-09
   3.68000008E-02   1.98099936E-09
   3.68500017E-02   2.01223038E-09
   3.68999988E-02   2.04280992E-09
   3.69499996E-02   2.07270290E-09
   3.70000005E-02   2.10187379E-09
   3.70500013E-02   2.13028706E-09
   3.70999984E-02   2.15790741E-09
   3.71499993E-02   2.18469798E-09
   3.72000001E-02   2.21062280E-09
   3.72500010E-02   2.23564545E-09
   3.73000018E-02   2.25972951E-09
   3.73499990E-02   2.28283770E-09
   3.73999998E-02   2.30493336E-09
   3.74500006E-02   2.32597963E-09
   3.75000015E-02   2.34593900E-09
   3.75499986E-02   2.36477504E-09
   3.75999995E-02   2.38245002E-09
   3.76500003E-02   2.39892661E-09
   3.77000012E-02   2.41416798E-09
   3.77499983E-02   2.42813725E-09
   3.77999991E-02   2.44079668E-09
   3.78500000E-02   2.45210940E-09
   3.79000008E-02   2.46203880E-09
   3.79500017E-02   2.47054799E-09
   3.79999988E-02   2.47760035E-09
   3.80499996E-02   2.48315946E-09
   3.81000005E-02   2.48718868E-09
   3.81500013E-02   2.48965248E-09
   3.81999984E-02   2.49051513E-09
   3.82499993E-02   2.48974086E-09
   3.83000001E-02   2.48729481E-09
   3.83500010E-02   2.48314214E-09
   3.84000018E-02   2.47724863E-09
   3.84499989E-02   2.46958010E-09
   3.84999998E-02   2.46010323E-09
   3.85500006E-02   2.44878540E-09
   3.86000015E-02   2.43559373E-09
   3.86499986E-02   2.42049603E-09
   3.86999995E-02   2.40346121E-09
   3.87500003E-02   2.38445841E-09
   3.88000011E-02   2.36345699E-09
   3.88499983E-02   2.34042763E-09
   3.88999991E-02   2.31534125E-09
   3.89500000E-02   2.28816943E-09
   3.90000008E-02   2.25888552E-09
   3.90500017E-02   2.22746288E-09
   3.90999988E-02   2.19387553E-09
   3.91499996E-02   2.15809837E-09
   3.92000005E-02   2.12010764E-09
   3.92500013E-02   2.07987982E-09
   3.92999984E-02   2.03739270E-09
   3.93499993E-02   1.99262540E-09
   3.94000001E-02   1.94555705E-09
   3.94500010E-02   1.89616900E-09
   3.95000018E-02   1.84444304E-09
   3.95499989E-02   1.79036219E-09
   3.95999998E-02   1.73391002E-09
   3.96500006E-02   1.67507208E-09
   3.97000015E-02   1.61383495E-09
   3.97499986E-02   1.55018620E-09
   3.97999994E-02   1.48411439E-09
   3.98500003E-02   1.41561007E-09
   3.99000011E-02   1.34466505E-09
   3.99499983E-02   1.27127198E-09
   3.99999991E-02   1.19542498E-09
   4.00500000E-02   1.11711973E-09
   4.01000008E-02   1.03635334E-09
   4.01500016E-02   9.53124357E-10
   4.01999988E-02   8.67432737E-10
   4.02499996E-02   7.79279974E-10
   4.03000005E-02   6.88669510E-10
   4.03500013E-02   5.95605787E-10
   4.03999984E-02   5.00094854E-10
   4.04499993E-02   4.02144623E-10
   4.05000001E-02   3.01764752E-10
   4.05500010E-02   1.98966843E-10
   4.06000018E-02   9.37639411E-11
   4.06499989E-02  -1.38295035E-11
   4.06999998E-02  -1.23797375E-10
   4.07500006E-02  -2.36121372E-10
   4.08000015E-02  -3.50781237E-10
   4.08499986E-02  -4.67755612E-10
   4.08999994E-02  -5.87020987E-10
   4.09500003E-02  -7.08551884E-10
   4.10000011E-02  -8.32320657E-10
   4.10499983E-02  -9.58298108E-10
   4.10999991E-02  -1.08645315E-09
   4.11499999E-02  -1.21675303E-09
   4.12000008E-02  -1.34916267E-09
   4.12500016E-02  -1.48364487E-09
   4.12999988E-02  -1.62016134E-09
   4.13499996E-02  -1.75867065E-09
   4.14000005E-02  -1.89912974E-09
   4.14500013E-02  -2.04149431E-09
   4.14999984E-02  -2.18571738E-09
   4.15499993E-02  -2.33174946E-09
   4.16000001E-02  -2.47953968E-09
   4.16500010E-02  -2.62903566E-09
   4.17000018E-02  -2.78018231E-09
   4.17499989E-02  -2.93292279E-09
   4.17999998E-02  -3.08719827E-09
   4.18500006E-02  -3.24294702E-09
   4.19000015E-02  -3.40010597E-09
   4.19499986E-02  -3.55860941E-09
   4.19999994E-02  -3.71839026E-09
   4.20500003E-02  -3.87937993E-09
   4.21000011E-02  -4.04150668E-09
   4.21499982E-02  -4.20469703E-09
   4.21999991E-02  -4.36887548E-09
   4.22499999E-02  -4.53396565E-09
   4.23000008E-02  -4.69988759E-09
   4.23500016E-02  -4.86655916E-09
   4.23999988E-02  -5.03389774E-09
   4.24499996E-02  -5.20181764E-09
   4.25000004E-02  -5.37023093E-09
   4.25500013E-02  -5.53904922E-09
   4.25999984E-02  -5.70818104E-09
   4.26499993E-02  -5.87753313E-09
   4.27000001E-02  -6.04701000E-09
   4.27500010E-02  -6.21651575E-09
   4.28000018E-02  -6.38595088E-09