   0.00000000       0.00000000    
   7.50000036E-05   0.00000000    
   1.50000007E-04   0.00000000    
   2.24999996E-04   0.00000000    
   3.00000014E-04  -2.98591905E-22
   3.75000003E-04  -2.19931169E-21
   4.49999992E-04  -7.47063889E-21
   5.24999981E-04  -1.15709207E-20
   6.00000028E-04   1.92415378E-20
   6.75000018E-04   2.03219975E-19
   7.50000007E-04   8.55101525E-19
   8.24999996E-04   2.68835932E-18
   8.99999985E-04   7.15214024E-18
   9.74999974E-04   1.69595104E-17
   1.04999996E-03   3.68768995E-17
   1.12499995E-03   7.48594153E-17
   1.20000006E-03   1.43632409E-16
   1.27500005E-03   2.62836229E-16
   1.35000004E-03   4.61868802E-16
   1.42500002E-03   7.83579380E-16
   1.50000001E-03   1.28898573E-15
   1.57500000E-03   2.06320582E-15
   1.64999999E-03   3.22282039E-15
   1.72499998E-03   4.92488969E-15
   1.79999997E-03   7.37788482E-15
   1.87499996E-03   1.08548077E-14
   1.94999995E-03   1.57087884E-14
   2.02500005E-03   2.23914718E-14
   2.09999993E-03   3.14745449E-14
   2.17500003E-03   4.36747027E-14
   2.24999990E-03   5.98824985E-14
   2.32500001E-03   8.11954602E-14
   2.40000011E-03   1.08955752E-13
   2.47499999E-03   1.44792964E-13
   2.55000009E-03   1.90672307E-13
   2.62499996E-03   2.48948946E-13
   2.70000007E-03   3.22428390E-13
   2.77499994E-03   4.14433787E-13
   2.85000005E-03   5.28880867E-13
   2.92499992E-03   6.70360143E-13
   3.00000003E-03   8.44227683E-13
   3.07499990E-03   1.05670475E-12
   3.15000000E-03   1.31498577E-12
   3.22500011E-03   1.62735645E-12
   3.29999998E-03   2.00332264E-12
   3.37500009E-03   2.45374836E-12
   3.44999996E-03   2.99100523E-12
   3.52500007E-03   3.62913432E-12
   3.59999994E-03   4.38401659E-12
   3.67500004E-03   5.27355850E-12
   3.74999992E-03   6.31788935E-12
   3.82500002E-03   7.53956880E-12
   3.89999989E-03   8.96381146E-12
   3.97500023E-03   1.06187151E-11
   4.05000011E-03   1.25355204E-11
   4.12499998E-03   1.47488619E-11
   4.19999985E-03   1.72970423E-11
   4.27500019E-03   2.02223308E-11
   4.35000006E-03   2.35712509E-11
   4.42499993E-03   2.73949058E-11
   4.49999981E-03   3.17492907E-11
   4.57500014E-03   3.66956431E-11
   4.65000002E-03   4.23007913E-11
   4.72499989E-03   4.86375176E-11
   4.80000023E-03   5.57849322E-11
   4.87500010E-03   6.38288589E-11
   4.94999997E-03   7.28622232E-11
   5.02499985E-03   8.29854449E-11
   5.10000018E-03   9.43068887E-11
   5.17500006E-03   1.06943239E-10
   5.24999993E-03   1.21019958E-10
   5.32499980E-03   1.36671688E-10
   5.40000014E-03   1.54042681E-10
   5.47500001E-03   1.73287287E-10
   5.54999989E-03   1.94570318E-10
   5.62500022E-03   2.18067536E-10
   5.70000010E-03   2.43966070E-10
   5.77499997E-03   2.72464828E-10
   5.84999984E-03   3.03774894E-10
   5.92500018E-03   3.38120004E-10
   6.00000005E-03   3.75736997E-10
   6.07499992E-03   4.16876034E-10
   6.14999980E-03   4.61801042E-10
   6.22500014E-03   5.10790188E-10
   6.30000001E-03   5.64136127E-10
   6.37499988E-03   6.22146223E-10
   6.45000022E-03   6.85142887E-10
   6.52500009E-03   7.53464069E-10
   6.59999996E-03   8.27463209E-10
   6.67499984E-03   9.07509512E-10
   6.75000018E-03   9.93987892E-10
   6.82500005E-03   1.08729969E-09
   6.89999992E-03   1.18786203E-09
   6.97499979E-03   1.29610866E-09
   7.05000013E-03   1.41248879E-09
   7.12500000E-03   1.53746826E-09
   7.19999988E-03   1.67152836E-09
   7.27500021E-03   1.81516635E-09
   7.35000009E-03   1.96889505E-09
   7.42499996E-03   2.13324203E-09
   7.49999983E-03   2.30875008E-09
   7.57500017E-03   2.49597565E-09
   7.65000004E-03   2.69548961E-09
   7.72499992E-03   2.90787505E-09
   7.79999979E-03   3.13372839E-09
   7.87500013E-03   3.37365713E-09
   7.95000046E-03   3.62827901E-09
   8.02499987E-03   3.89822263E-09
   8.10000021E-03   4.18412460E-09
   8.17499962E-03   4.48662751E-09
   8.24999996E-03   4.80638240E-09
   8.32500029E-03   5.14404386E-09
   8.39999970E-03   5.50026957E-09
   8.47500004E-03   5.87571947E-09
   8.55000038E-03   6.27105345E-09
   8.62499978E-03   6.68692834E-09
   8.70000012E-03   7.12399784E-09
   8.77500046E-03   7.58290852E-09
   8.84999987E-03   8.06430123E-09
   8.92500021E-03   8.56880256E-09
   8.99999961E-03   9.09703068E-09
   9.07499995E-03   9.64958424E-09
   9.15000029E-03   1.02270468E-08
   9.22499970E-03   1.08299778E-08
   9.30000003E-03   1.14589129E-08
   9.37500037E-03   1.21143628E-08
   9.44999978E-03   1.27968054E-08
   9.52500012E-03   1.35066847E-08
   9.60000046E-03   1.42444119E-08
   9.67499986E-03   1.50103521E-08
   9.75000020E-03   1.58048294E-08
   9.82499961E-03   1.66281175E-08
   9.89999995E-03   1.74804367E-08
   9.97500028E-03   1.83619591E-08
   1.00499997E-02   1.92727878E-08
   1.01250000E-02   2.02129620E-08
   1.02000004E-02   2.11824549E-08
   1.02749998E-02   2.21811618E-08
   1.03500001E-02   2.32089050E-08
   1.04250005E-02   2.42654234E-08
   1.04999999E-02   2.53503636E-08
   1.05750002E-02   2.64632884E-08
   1.06499996E-02   2.76036545E-08
   1.07249999E-02   2.87708222E-08
   1.08000003E-02   2.99640384E-08
   1.08749997E-02   3.11824522E-08
   1.09500000E-02   3.24250813E-08
   1.10250004E-02   3.36908315E-08
   1.10999998E-02   3.49784699E-08
   1.11750001E-02   3.62866430E-08
   1.12500004E-02   3.76138516E-08
   1.13249999E-02   3.89584613E-08
   1.14000002E-02   4.03186853E-08
   1.14749996E-02   4.16925907E-08
   1.15499999E-02   4.30780744E-08
   1.16250003E-02   4.44728840E-08
   1.16999997E-02   4.58746001E-08
   1.17750000E-02   4.72806221E-08
   1.18500004E-02   4.86881788E-08
   1.19249998E-02   5.00943180E-08
   1.20000001E-02   5.14959098E-08
   1.20750004E-02   5.28896145E-08
   1.21499998E-02   5.42719292E-08
   1.22250002E-02   5.56391377E-08
   1.22999996E-02   5.69873109E-08
   1.23749999E-02   5.83123416E-08
   1.24500003E-02   5.96099028E-08
   1.25249997E-02   6.08754505E-08
   1.26000000E-02   6.21042346E-08
   1.26750004E-02   6.32913029E-08
   1.27499998E-02   6.44314682E-08
   1.28250001E-02   6.55193304E-08
   1.29000004E-02   6.65492621E-08
   1.29749998E-02   6.75154297E-08
   1.30500002E-02   6.84117722E-08
   1.31249996E-02   6.92320086E-08
   1.31999999E-02   6.99696301E-08
   1.32750003E-02   7.06179222E-08
   1.33499997E-02   7.11699215E-08
   1.34250000E-02   7.16184658E-08
   1.35000004E-02   7.19561797E-08
   1.35749998E-02   7.21754603E-08
   1.36500001E-02   7.22684987E-08
   1.37250004E-02   7.22272873E-08
   1.37999998E-02   7.20436120E-08
   1.38750002E-02   7.17090458E-08
   1.39499996E-02   7.12149841E-08
   1.40249999E-02   7.05526162E-08
   1.41000003E-02   6.97129678E-08
   1.41749997E-02   6.86868802E-08
   1.42500000E-02   6.74650380E-08
   1.43250003E-02   6.60379555E-08
   1.43999998E-02   6.43959979E-08
   1.44750001E-02   6.25294021E-08
   1.45500004E-02   6.04282775E-08
   1.46249998E-02   5.80825912E-08
   1.47000002E-02   5.54822286E-08
   1.47749996E-02   5.26169579E-08
   1.48499999E-02   4.94764905E-08
   1.49250003E-02   4.60504559E-08
   1.49999997E-02   4.23284376E-08
   1.50750000E-02   3.82999765E-08
   1.51500003E-02   3.39545920E-08
   1.52249997E-02   2.92818019E-08
   1.53000001E-02   2.42711380E-08
   1.53750004E-02   1.89121643E-08
   1.54499998E-02   1.31944935E-08
   1.55250002E-02   7.10780590E-09
   1.55999996E-02   6.41881770E-10
   1.56750008E-02  -6.21339602E-09
   1.57500003E-02  -1.34680045E-08
   1.58249997E-02  -2.11317719E-08
   1.59000009E-02  -2.92143447E-08
   1.59750003E-02  -3.77251617E-08
   1.60499997E-02  -4.66734242E-08
   1.61249992E-02  -5.60680959E-08
   1.62000004E-02  -6.59178454E-08
   1.62749998E-02  -7.62310464E-08
   1.63499992E-02  -8.70157351E-08
   1.64250005E-02  -9.82795925E-08
   1.64999999E-02  -1.10029887E-07
   1.65749993E-02  -1.22273491E-07
   1.66500006E-02  -1.35016833E-07
   1.67250000E-02  -1.48265855E-07
   1.67999994E-02  -1.62025970E-07
   1.68750007E-02  -1.76302066E-07
   1.69500001E-02  -1.91098479E-07
   1.70249995E-02  -2.06418918E-07
   1.71000008E-02  -2.22266465E-07
   1.71750002E-02  -2.38643537E-07
   1.72499996E-02  -2.55551896E-07
   1.73250008E-02  -2.72992509E-07
   1.74000002E-02  -2.90965573E-07
   1.74749997E-02  -3.09470551E-07
   1.75500009E-02  -3.28506047E-07
   1.76250003E-02  -3.48069847E-07
   1.76999997E-02  -3.68158766E-07
   1.77749991E-02  -3.88768711E-07
   1.78500004E-02  -4.09894653E-07
   1.79249998E-02  -4.31530623E-07
   1.79999992E-02  -4.53669514E-07
   1.80750005E-02  -4.76303200E-07
   1.81499999E-02  -4.99422526E-07
   1.82249993E-02  -5.23017206E-07
   1.83000006E-02  -5.47075786E-07
   1.83750000E-02  -5.71585588E-07
   1.84499994E-02  -5.96532800E-07
   1.85250007E-02  -6.21902416E-07
   1.86000001E-02  -6.47678064E-07
   1.86749995E-02  -6.73842067E-07
   1.87500007E-02  -7.00375494E-07
   1.88250002E-02  -7.27258055E-07
   1.88999996E-02  -7.54468203E-07
   1.89750008E-02  -7.81982749E-07
   1.90500002E-02  -8.09777362E-07
   1.91249996E-02  -8.37826178E-07
   1.92000009E-02  -8.66101857E-07
   1.92750003E-02  -8.94575635E-07
   1.93499997E-02  -9.23217101E-07
   1.94249991E-02  -9.51994593E-07
   1.95000004E-02  -9.80874916E-07
   1.95749998E-02  -1.00982311E-06
   1.96499992E-02  -1.03880291E-06
   1.97250005E-02  -1.06777645E-06
   1.97999999E-02  -1.09670430E-06
   1.98749993E-02  -1.12554540E-06
   1.99500006E-02  -1.15425723E-06
   2.00250000E-02  -1.18279581E-06
   2.00999994E-02  -1.21111543E-06
   2.01750007E-02  -1.23916891E-06
   2.02500001E-02  -1.26690747E-06
   2.03249995E-02  -1.29428088E-06
   2.04000007E-02  -1.32123739E-06
   2.04750001E-02  -1.34772370E-06
   2.05499995E-02  -1.37368488E-06
   2.06250008E-02  -1.39906479E-06
   2.07000002E-02  -1.42380588E-06
   2.07749996E-02  -1.44784872E-06
   2.08500009E-02  -1.47113292E-06
   2.09250003E-02  -1.49359653E-06
   2.09999997E-02  -1.51517622E-06
   2.10749991E-02  -1.53580743E-06
   2.11500004E-02  -1.55542443E-06
   2.12249998E-02  -1.57396016E-06
   2.12999992E-02  -1.59134640E-06
   2.13750005E-02  -1.60751381E-06
   2.14499999E-02  -1.62239178E-06
   2.15249993E-02  -1.63590903E-06
   2.16000006E-02  -1.64799314E-06
   2.16750000E-02  -1.65857057E-06
   2.17499994E-02  -1.66756706E-06
   2.18250006E-02  -1.67490794E-06
   2.19000001E-02  -1.68051724E-06
   2.19749995E-02  -1.68431870E-06
   2.20500007E-02  -1.68623546E-06
   2.21250001E-02  -1.68618988E-06
   2.21999995E-02  -1.68410429E-06
   2.22750008E-02  -1.67990038E-06
   2.23500002E-02  -1.67349992E-06
   2.24249996E-02  -1.66482437E-06
   2.25000009E-02  -1.65379493E-06
   2.25750003E-02  -1.64033315E-06
   2.26499997E-02  -1.62436072E-06
   2.27249991E-02  -1.60579953E-06
   2.28000004E-02  -1.58457158E-06
   2.28749998E-02  -1.56059969E-06
   2.29499992E-02  -1.53380688E-06
   2.30250005E-02  -1.50411722E-06
   2.30999999E-02  -1.47145533E-06
   2.31749993E-02  -1.43574709E-06
   2.32500006E-02  -1.39691872E-06
   2.33250000E-02  -1.35489836E-06
   2.33999994E-02  -1.30961507E-06
   2.34750006E-02  -1.26099962E-06
   2.35500000E-02  -1.20898380E-06
   2.36249994E-02  -1.15350133E-06
   2.37000007E-02  -1.09448797E-06
   2.37750001E-02  -1.03188131E-06
   2.38499995E-02  -9.65620984E-07
   2.39250008E-02  -8.95648725E-07
   2.40000002E-02  -8.21908941E-07
   2.40749996E-02  -7.44348313E-07
   2.41500009E-02  -6.62916307E-07
   2.42250003E-02  -5.77565004E-07
   2.42999997E-02  -4.88249668E-07
   2.43749991E-02  -3.94928549E-07
   2.44500004E-02  -2.97563133E-07
   2.45249998E-02  -1.96118322E-07
   2.45999992E-02  -9.05624873E-08
   2.46750005E-02   1.91322798E-08
   2.47499999E-02   1.32990039E-07
   2.48249993E-02   2.51030883E-07
   2.49000005E-02   3.73270922E-07
   2.49749999E-02   4.99721807E-07
   2.50499994E-02   6.30390844E-07
   2.51250006E-02   7.65280845E-07
   2.52000000E-02   9.04389879E-07
   2.52749994E-02   1.04771129E-06
   2.53500007E-02   1.19523315E-06
   2.54250001E-02   1.34693892E-06
   2.54999995E-02   1.50280641E-06
   2.55750008E-02   1.66280813E-06
   2.56500002E-02   1.82691122E-06
   2.57249996E-02   1.99507713E-06
   2.58000009E-02   2.16726153E-06
   2.58750003E-02   2.34341428E-06
   2.59499997E-02   2.52347922E-06
   2.60249991E-02   2.70739406E-06
   2.61000004E-02   2.89509057E-06
   2.61749998E-02   3.08649351E-06
   2.62499992E-02   3.28152191E-06
   2.63250005E-02   3.48008757E-06
   2.63999999E-02   3.68209635E-06
   2.64749993E-02   3.88744729E-06
   2.65500005E-02   4.09603308E-06
   2.66249999E-02   4.30773889E-06
   2.66999993E-02   4.52244285E-06
   2.67750006E-02   4.74001627E-06
   2.68500000E-02   4.96032362E-06
   2.69249994E-02   5.18322213E-06
   2.70000007E-02   5.40856217E-06
   2.70750001E-02   5.63618687E-06
   2.71499995E-02   5.86593251E-06
   2.72250008E-02   6.09762628E-06
   2.73000002E-02   6.33109039E-06
   2.73749996E-02   6.56613884E-06
   2.74500009E-02   6.80257790E-06
   2.75250003E-02   7.04020840E-06
   2.75999997E-02   7.27882070E-06
   2.76749991E-02   7.51820198E-06
   2.77500004E-02   7.75812896E-06
   2.78249998E-02   7.99837198E-06
   2.78999992E-02   8.23869505E-06
   2.79750004E-02   8.47885622E-06
   2.80499998E-02   8.71860266E-06
   2.81249993E-02   8.95767971E-06
   2.82000005E-02   9.19582180E-06
   2.82749999E-02   9.43275882E-06
   2.83499993E-02   9.66821335E-06
   2.84250006E-02   9.90190165E-06
   2.85000000E-02   1.01335327E-05
   2.85749994E-02   1.03628108E-05
   2.86500007E-02   1.05894342E-05
   2.87250001E-02   1.08130935E-05
   2.87999995E-02   1.10334749E-05
   2.88750008E-02   1.12502594E-05
   2.89500002E-02   1.14631202E-05
   2.90249996E-02   1.16717274E-05
   2.91000009E-02   1.18757462E-05
   2.91750003E-02   1.20748355E-05
   2.92499997E-02   1.22686515E-05
   2.93249991E-02   1.24568451E-05
   2.94000003E-02   1.26390632E-05
   2.94749998E-02   1.28149477E-05
   2.95499992E-02   1.29841383E-05
   2.96250004E-02   1.31462730E-05
   2.96999998E-02   1.33009835E-05
   2.97749992E-02   1.34479005E-05
   2.98500005E-02   1.35866512E-05
   2.99249999E-02   1.37168627E-05
   2.99999993E-02   1.38381592E-05
   3.00750006E-02   1.39501644E-05
   3.01500000E-02   1.40525008E-05
   3.02249994E-02   1.41447863E-05
   3.03000007E-02   1.42266435E-05
   3.03750001E-02   1.42976924E-05
   3.04499995E-02   1.43575553E-05
   3.05250008E-02   1.44058540E-05
   3.06000002E-02   1.44422111E-05
   3.06749996E-02   1.44662517E-05
   3.07500008E-02   1.44776013E-05
   3.08250003E-02   1.44758915E-05
   3.08999997E-02   1.44607520E-05
   3.09749991E-02   1.44318192E-05
   3.10500003E-02   1.43887328E-05
   3.11249997E-02   1.43311345E-05
   3.11999992E-02   1.42586705E-05
   3.12750004E-02   1.41709970E-05
   3.13500017E-02   1.40677712E-05
   3.14249992E-02   1.39486574E-05
   3.15000005E-02   1.38133255E-05
   3.15750018E-02   1.36614544E-05
   3.16499993E-02   1.34927286E-05
   3.17250006E-02   1.33068415E-05
   3.18000019E-02   1.31034940E-05
   3.18749994E-02   1.28823976E-05
   3.19500007E-02   1.26432724E-05
   3.20249982E-02   1.23858454E-05
   3.20999995E-02   1.21098583E-05
   3.21750008E-02   1.18150620E-05
   3.22499983E-02   1.15012181E-05
   3.23249996E-02   1.11681011E-05
   3.24000008E-02   1.08154964E-05
   3.24749984E-02   1.04432029E-05
   3.25499997E-02   1.00510333E-05
   3.26250009E-02   9.63881394E-06
   3.26999985E-02   9.20638468E-06
   3.27749997E-02   8.75360092E-06
   3.28500010E-02   8.28033262E-06
   3.29249986E-02   7.78646609E-06
   3.29999998E-02   7.27190309E-06
   3.30750011E-02   6.73656223E-06
   3.31499986E-02   6.18037939E-06
   3.32249999E-02   5.60330727E-06
   3.33000012E-02   5.00531723E-06
   3.33749987E-02   4.38639927E-06
   3.34500000E-02   3.74656133E-06
   3.35250013E-02   3.08583071E-06
   3.35999988E-02   2.40425470E-06
   3.36750001E-02   1.70190037E-06
   3.37500013E-02   9.78854928E-07
   3.38249989E-02   2.35226750E-07
   3.39000002E-02  -5.28855310E-07
   3.39750014E-02  -1.31324009E-06
   3.40499990E-02  -2.11775523E-06
   3.41250002E-02  -2.94220695E-06
   3.42000015E-02  -3.78637719E-06
   3.42749991E-02  -4.65002677E-06
   3.43500003E-02  -5.53289374E-06
   3.44250016E-02  -6.43469139E-06
   3.44999991E-02  -7.35510957E-06
   3.45750004E-02  -8.29381679E-06
   3.46500017E-02  -9.25045515E-06
   3.47249992E-02  -1.02246440E-05
   3.48000005E-02  -1.12159796E-05
   3.48750018E-02  -1.22240299E-05
   3.49499993E-02  -1.32483419E-05
   3.50250006E-02  -1.42884346E-05
   3.51000018E-02  -1.53438068E-05
   3.51749994E-02  -1.64139274E-05
   3.52500007E-02  -1.74982451E-05
   3.53249982E-02  -1.85961817E-05
   3.53999995E-02  -1.97071313E-05
   3.54750007E-02  -2.08304682E-05
   3.55499983E-02  -2.19655376E-05
   3.56249996E-02  -2.31116610E-05
   3.57000008E-02  -2.42681344E-05
   3.57749984E-02  -2.54342322E-05
   3.58499996E-02  -2.66092011E-05
   3.59250009E-02  -2.77922663E-05
   3.59999985E-02  -2.89826257E-05
   3.60749997E-02  -3.01794553E-05
   3.61500010E-02  -3.13819110E-05
   3.62249985E-02  -3.25891124E-05
   3.62999998E-02  -3.38001664E-05
   3.63750011E-02  -3.50141563E-05
   3.64499986E-02  -3.62301435E-05
   3.65249999E-02  -3.74471601E-05
   3.66000012E-02  -3.86642241E-05
   3.66749987E-02  -3.98803277E-05
   3.67500000E-02  -4.10944413E-05
   3.68250012E-02  -4.23055171E-05
   3.68999988E-02  -4.35124930E-05
   3.69750001E-02  -4.47142775E-05
   3.70500013E-02  -4.59097610E-05
   3.71249989E-02  -4.70978193E-05
   3.72000001E-02  -4.82773066E-05
   3.72750014E-02  -4.94470660E-05
   3.73499990E-02  -5.06059187E-05
   3.74250002E-02  -5.17526678E-05
   3.75000015E-02  -5.28861055E-05
   3.75749990E-02  -5.40050132E-05
   3.76500003E-02  -5.51081466E-05
   3.77250016E-02  -5.61942579E-05
   3.77999991E-02  -5.72620847E-05
   3.78750004E-02  -5.83103538E-05
   3.79500017E-02  -5.93377772E-05
   3.80249992E-02  -6.03430562E-05
   3.81000005E-02  -6.13248922E-05
   3.81750017E-02  -6.22819716E-05
   3.82499993E-02  -6.32129741E-05
   3.83250006E-02  -6.41165825E-05
   3.84000018E-02  -6.49914509E-05
   3.84749994E-02  -6.58362624E-05
   3.85500006E-02  -6.66496708E-05
   3.86249982E-02  -6.74303374E-05
   3.86999995E-02  -6.81769234E-05
   3.87750007E-02  -6.88880755E-05
   3.88499983E-02  -6.95624622E-05
   3.89249995E-02  -7.01987447E-05
   3.90000008E-02  -7.07955987E-05
   3.90749983E-02  -7.13516856E-05
   3.91499996E-02  -7.18656738E-05
   3.92250009E-02  -7.23362464E-05
   3.92999984E-02  -7.27621009E-05
   3.93749997E-02  -7.31419423E-05
   3.94500010E-02  -7.34744681E-05
   3.95249985E-02  -7.37584051E-05
   3.95999998E-02  -7.39924872E-05
   3.96750011E-02  -7.41754557E-05
   3.97499986E-02  -7.43060882E-05
   3.98249999E-02  -7.43831624E-05
   3.99000011E-02  -7.44054778E-05
   3.99749987E-02  -7.43718410E-05
   4.00500000E-02  -7.42810953E-05
   4.01250012E-02  -7.41321055E-05
   4.01999988E-02  -7.39237439E-05
   4.02750000E-02  -7.36549264E-05
   4.03500013E-02  -7.33245834E-05
   4.04249988E-02  -7.29316671E-05
   4.05000001E-02  -7.24751735E-05
   4.05750014E-02  -7.19541131E-05
   4.06499989E-02  -7.13675472E-05
   4.07250002E-02  -7.07145373E-05
   4.08000015E-02  -6.99942029E-05
   4.08749990E-02  -6.92057001E-05
   4.09500003E-02  -6.83481994E-05
   4.10250016E-02  -6.74209296E-05
   4.10999991E-02  -6.64231484E-05
   4.11750004E-02  -6.53541647E-05
   4.12500016E-02  -6.42133018E-05
   4.13249992E-02  -6.29999558E-05
   4.14000005E-02  -6.17135374E-05
   4.14750017E-02  -6.03535264E-05
   4.15499993E-02  -5.89194387E-05
   4.16250005E-02  -5.74108344E-05
   4.17000018E-02  -5.58273314E-05
   4.17749994E-02  -5.41685877E-05
   4.18500006E-02  -5.24343050E-05
   4.19249982E-02  -5.06242541E-05
   4.19999994E-02  -4.87382458E-05
   4.20750007E-02  -4.67761456E-05
   4.21499982E-02  -4.47378807E-05
   4.22249995E-02  -4.26234292E-05
   4.23000008E-02  -4.04328275E-05
   4.23749983E-02  -3.81661594E-05
   4.24499996E-02  -3.58235848E-05
   4.25250009E-02  -3.34053075E-05
   4.25999984E-02  -3.09116003E-05
   4.26749997E-02  -2.83427962E-05
   4.27500010E-02  -2.56992844E-05
   4.28249985E-02  -2.29815232E-05
   4.28999998E-02  -2.01900311E-05
   4.29750010E-02  -1.73253884E-05
   4.30499986E-02  -1.43882462E-05
   4.31249999E-02  -1.13793158E-05
   4.32000011E-02  -8.29937653E-06
   4.32749987E-02  -5.14927251E-06
   4.33499999E-02  -1.92991524E-06
   4.34250012E-02   1.35771711E-06
   4.34999987E-02   4.71257590E-06
   4.35750000E-02   8.13354563E-06
   4.36500013E-02   1.16194433E-05
   4.37249988E-02   1.51690165E-05
   4.38000001E-02   1.87809401E-05
   4.38750014E-02   2.24538271E-05
   4.39499989E-02   2.61862187E-05
   4.40250002E-02   2.99765834E-05
   4.41000015E-02   3.38233258E-05
   4.41749990E-02   3.77247707E-05
   4.42500003E-02   4.16791809E-05
   4.43250015E-02   4.56847483E-05
   4.43999991E-02   4.97395995E-05
   4.44750004E-02   5.38417917E-05
   4.45500016E-02   5.79893021E-05
   4.46249992E-02   6.21800500E-05
   4.47000004E-02   6.64118852E-05
   4.47750017E-02   7.06825886E-05
   4.48499992E-02   7.49898754E-05
   4.49250005E-02   7.93313884E-05
   4.50000018E-02   8.37047119E-05
   4.50749993E-02   8.81073574E-05
   4.51500006E-02   9.25367713E-05
   4.52249981E-02   9.69903413E-05
   4.52999994E-02   1.01465397E-04
   4.53750007E-02   1.05959189E-04
   4.54499982E-02   1.10468914E-04
   4.55249995E-02   1.14991723E-04
   4.56000008E-02   1.19524673E-04
   4.56749983E-02   1.24064798E-04
   4.57499996E-02   1.28609041E-04
   4.58250009E-02   1.33154317E-04
   4.58999984E-02   1.37697512E-04
   4.59749997E-02   1.42235382E-04
   4.60500009E-02   1.46764665E-04
   4.61249985E-02   1.51282089E-04
   4.61999997E-02   1.55784262E-04
   4.62750010E-02   1.60267795E-04
   4.63499986E-02   1.64729223E-04
   4.64249998E-02   1.69165054E-04
   4.65000011E-02   1.73571752E-04
   4.65749986E-02   1.77945753E-04
   4.66499999E-02   1.82283417E-04
   4.67250012E-02   1.86581106E-04
   4.67999987E-02   1.90835097E-04
   4.68750000E-02   1.95041677E-04
   4.69500013E-02   1.99197093E-04
   4.70249988E-02   2.03297532E-04
   4.71000001E-02   2.07339181E-04
   4.71750014E-02   2.11318227E-04
   4.72499989E-02   2.15230786E-04
   4.73250002E-02   2.19072957E-04
   4.74000014E-02   2.22840856E-04
   4.74749990E-02   2.26530552E-04
   4.75500003E-02   2.30138117E-04
   4.76250015E-02   2.33659579E-04
   4.76999991E-02   2.37090993E-04
   4.77750003E-02   2.40428417E-04
   4.78500016E-02   2.43667877E-04
   4.79249991E-02   2.46805401E-04
   4.80000004E-02   2.49837001E-04
   4.80750017E-02   2.52758735E-04
   4.81499992E-02   2.55566643E-04
   4.82250005E-02   2.58256769E-04
   4.83000018E-02   2.60825182E-04
   4.83749993E-02   2.63267983E-04
   4.84500006E-02   2.65581271E-04
   4.85250019E-02   2.67761148E-04
   4.85999994E-02   2.69803801E-04
   4.86750007E-02   2.71705328E-04
   4.87499982E-02   2.73462007E-04
   4.88249995E-02   2.75070051E-04
   4.89000008E-02   2.76525738E-04
   4.89749983E-02   2.77825340E-04
   4.90499996E-02   2.78965250E-04
   4.91250008E-02   2.79941887E-04
   4.91999984E-02   2.80751643E-04
   4.92749996E-02   2.81391054E-04
   4.93500009E-02   2.81856686E-04
   4.94249985E-02   2.82145134E-04
   4.94999997E-02   2.82253110E-04
   4.95750010E-02   2.82177323E-04
   4.96499985E-02   2.81914603E-04
   4.97249998E-02   2.81461806E-04
   4.98000011E-02   2.80815904E-04
   4.98749986E-02   2.79973930E-04
   4.99499999E-02   2.78933032E-04
   5.00250012E-02   2.77690357E-04
   5.00999987E-02   2.76243198E-04
   5.01750000E-02   2.74588965E-04
   5.02500013E-02   2.72725098E-04
   5.03249988E-02   2.70649209E-04
   5.04000001E-02   2.68358912E-04
   5.04750013E-02   2.65852024E-04
   5.05499989E-02   2.63126421E-04
   5.06250001E-02   2.60180066E-04
   5.07000014E-02   2.57011096E-04
   5.07749990E-02   2.53617705E-04
   5.08500002E-02   2.49998266E-04
   5.09250015E-02   2.46151205E-04
   5.09999990E-02   2.42075141E-04
   5.10750003E-02   2.37768763E-04
   5.11500016E-02   2.33230938E-04
   5.12249991E-02   2.28460631E-04
   5.13000004E-02   2.23456969E-04
   5.13750017E-02   2.18219211E-04
   5.14499992E-02   2.12746760E-04
   5.15250005E-02   2.07039164E-04
   5.16000018E-02   2.01096118E-04
   5.16749993E-02   1.94917477E-04
   5.17500006E-02   1.88503240E-04
   5.18250018E-02   1.81853553E-04
   5.18999994E-02   1.74968736E-04
   5.19750006E-02   1.67849270E-04
   5.20499982E-02   1.60495780E-04
   5.21249995E-02   1.52909066E-04
   5.22000007E-02   1.45090104E-04
   5.22749983E-02   1.37040042E-04
   5.23499995E-02   1.28760192E-04
   5.24250008E-02   1.20252036E-04
   5.24999984E-02   1.11517249E-04
   5.25749996E-02   1.02557657E-04
   5.26500009E-02   9.33752744E-05
   5.27249984E-02   8.39723143E-05
   5.27999997E-02   7.43511409E-05
   5.28750010E-02   6.45143300E-05
   5.29499985E-02   5.44646318E-05
   5.30249998E-02   4.42049713E-05
   5.31000011E-02   3.37384809E-05
   5.31749986E-02   2.30684709E-05
   5.32499999E-02   1.21984331E-05
   5.33250012E-02   1.13205590E-06
   5.33999987E-02  -1.01267733E-05
   5.34750000E-02  -2.15739856E-05
   5.35500012E-02  -3.32053314E-05
   5.36249988E-02  -4.50163461E-05
   5.37000000E-02  -5.70023840E-05
   5.37750013E-02  -6.91586029E-05
   5.38499989E-02  -8.14799714E-05
   5.39250001E-02  -9.39612801E-05
   5.40000014E-02  -1.06597101E-04
   5.40749989E-02  -1.19381846E-04
   5.41500002E-02  -1.32309709E-04
   5.42250015E-02  -1.45374725E-04
   5.42999990E-02  -1.58570707E-04
   5.43750003E-02  -1.71891297E-04
   5.44500016E-02  -1.85329947E-04
   5.45249991E-02  -1.98879934E-04
   5.46000004E-02  -2.12534331E-04
   5.46750017E-02  -2.26286051E-04
   5.47499992E-02  -2.40127803E-04
   5.48250005E-02  -2.54052167E-04
   5.49000017E-02  -2.68051459E-04
   5.49749993E-02  -2.82117922E-04
   5.50500005E-02  -2.96243554E-04
   5.51250018E-02  -3.10420175E-04
   5.51999994E-02  -3.24639492E-04
   5.52750006E-02  -3.38893064E-04
   5.53499982E-02  -3.53172218E-04
   5.54249994E-02  -3.67468136E-04
   5.55000007E-02  -3.81771912E-04
   5.55749983E-02  -3.96074407E-04
   5.56499995E-02  -4.10366425E-04
   5.57250008E-02  -4.24638507E-04
   5.57999983E-02  -4.38881136E-04
   5.58749996E-02  -4.53084678E-04
   5.59500009E-02  -4.67239326E-04
   5.60249984E-02  -4.81335184E-04
   5.60999997E-02  -4.95362096E-04
   5.61750010E-02  -5.09310048E-04
   5.62499985E-02  -5.23168710E-04
   5.63249998E-02  -5.36927662E-04
   5.64000010E-02  -5.50576486E-04
   5.64749986E-02  -5.64104586E-04
   5.65499999E-02  -5.77501254E-04
   5.66250011E-02  -5.90755721E-04
   5.66999987E-02  -6.03857217E-04
   5.67749999E-02  -6.16794801E-04
   5.68500012E-02  -6.29557471E-04
   5.69249988E-02  -6.42134284E-04
   5.70000000E-02  -6.54514122E-04
   5.70750013E-02  -6.66685810E-04
   5.71499988E-02  -6.78638171E-04
   5.72250001E-02  -6.90360030E-04
   5.73000014E-02  -7.01840152E-04
   5.73749989E-02  -7.13067304E-04
   5.74500002E-02  -7.24030251E-04
   5.75250015E-02  -7.34717702E-04
   5.75999990E-02  -7.45118363E-04
   5.76750003E-02  -7.55220943E-04
   5.77500015E-02  -7.65014265E-04
   5.78249991E-02  -7.74487096E-04
   5.79000004E-02  -7.83628260E-04
   5.79750016E-02  -7.92426697E-04
   5.80499992E-02  -8.00871290E-04
   5.81250004E-02  -8.08950979E-04
   5.82000017E-02  -8.16654821E-04
   5.82749993E-02  -8.23971990E-04
   5.83500005E-02  -8.30891775E-04
   5.84250018E-02  -8.37403350E-04
   5.84999993E-02  -8.43496120E-04
   5.85750006E-02  -8.49159725E-04
   5.86499982E-02  -8.54383747E-04
   5.87249994E-02  -8.59157997E-04
   5.88000007E-02  -8.63472407E-04
   5.88749982E-02  -8.67317023E-04
   5.89499995E-02  -8.70682066E-04
   5.90250008E-02  -8.73557932E-04
   5.90999983E-02  -8.75935133E-04
   5.91749996E-02  -8.77804472E-04
   5.92500009E-02  -8.79156869E-04
   5.93249984E-02  -8.79983418E-04
   5.93999997E-02  -8.80275620E-04
   5.94750009E-02  -8.80025094E-04
   5.95499985E-02  -8.79223517E-04
   5.96249998E-02  -8.77863029E-04
   5.97000010E-02  -8.75935890E-04
   5.97749986E-02  -8.73434648E-04
   5.98499998E-02  -8.70352262E-04
   5.99250011E-02  -8.66681745E-04
   5.99999987E-02  -8.62416520E-04
   6.00749999E-02  -8.57550418E-04
   6.01500012E-02  -8.52077268E-04
   6.02249987E-02  -8.45991541E-04
   6.03000000E-02  -8.39287881E-04
   6.03750013E-02  -8.31961108E-04
   6.04499988E-02  -8.24006624E-04
   6.05250001E-02  -8.15420120E-04
   6.06000014E-02  -8.06197640E-04
   6.06749989E-02  -7.96335575E-04
   6.07500002E-02  -7.85830664E-04
   6.08250014E-02  -7.74680055E-04
   6.08999990E-02  -7.62881187E-04
   6.09750003E-02  -7.50432082E-04
   6.10500015E-02  -7.37331051E-04
   6.11249991E-02  -7.23576872E-04
   6.12000003E-02  -7.09168671E-04
   6.12750016E-02  -6.94106158E-04
   6.13499992E-02  -6.78389159E-04
   6.14250004E-02  -6.62018254E-04
   6.15000017E-02  -6.44994376E-04
   6.15749992E-02  -6.27318805E-04
   6.16500005E-02  -6.08993345E-04
   6.17250018E-02  -5.90020325E-04
   6.17999993E-02  -5.70402481E-04
   6.18750006E-02  -5.50142955E-04
   6.19499981E-02  -5.29245532E-04
   6.20249994E-02  -5.07714401E-04
   6.21000007E-02  -4.85554105E-04
   6.21749982E-02  -4.62769880E-04
   6.22499995E-02  -4.39367344E-04
   6.23250008E-02  -4.15352610E-04
   6.23999983E-02  -3.90732370E-04
   6.24749996E-02  -3.65513726E-04
   6.25500008E-02  -3.39704362E-04
   6.26249984E-02  -3.13312397E-04
   6.27000034E-02  -2.86346447E-04
   6.27750009E-02  -2.58815766E-04
   6.28499985E-02  -2.30729973E-04
   6.29250035E-02  -2.02099269E-04
   6.30000010E-02  -1.72934349E-04
   6.30749986E-02  -1.43246420E-04
   6.31500036E-02  -1.13047194E-04
   6.32250011E-02  -8.23488954E-05
   6.32999986E-02  -5.11642502E-05
   6.33750036E-02  -1.95065059E-05
   6.34500012E-02   1.26106006E-05
   6.35249987E-02   4.51728265E-05
   6.36000037E-02   7.81654308E-05
   6.36750013E-02   1.11573201E-04
   6.37499988E-02   1.45380414E-04
   6.38249964E-02   1.79570867E-04
   6.39000013E-02   2.14127867E-04
   6.39749989E-02   2.49034259E-04
   6.40499964E-02   2.84272392E-04
   6.41250014E-02   3.19824176E-04
   6.41999990E-02   3.55671102E-04