   0.00000000       0.00000000    
   7.50000036E-05   0.00000000    
   1.50000007E-04   0.00000000    
   2.24999996E-04   0.00000000    
   3.00000014E-04   2.64745447E-24
   3.75000003E-04   2.76463215E-23
   4.49999992E-04   1.55817220E-22
   5.24999981E-04   6.31751266E-22
   6.00000028E-04   2.06724269E-21
   6.75000018E-04   5.80302864E-21
   7.50000007E-04   1.45036605E-20
   8.24999996E-04   3.30794761E-20
   8.99999985E-04   7.00507595E-20
   9.74999974E-04   1.39491641E-19
   1.04999996E-03   2.63712960E-19
   1.12499995E-03   4.76872673E-19
   1.20000006E-03   8.29722694E-19
   1.27500005E-03   1.39573411E-18
   1.35000004E-03   2.27886997E-18
   1.42500002E-03   3.62328807E-18
   1.50000001E-03   5.62530958E-18
   1.57500000E-03   8.54800504E-18
   1.64999999E-03   1.27387551E-17
   1.72499998E-03   1.86502378E-17
   1.79999997E-03   2.68651984E-17
   1.87499996E-03   3.81255154E-17
   1.94999995E-03   5.33660370E-17
   2.02500005E-03   7.37535675E-17
   2.09999993E-03   1.00731832E-16
   2.17500003E-03   1.36072627E-16
   2.24999990E-03   1.81933796E-16
   2.32500001E-03   2.40924440E-16
   2.40000011E-03   3.16178235E-16
   2.47499999E-03   4.11435719E-16
   2.55000009E-03   5.31135027E-16
   2.62499996E-03   6.80512623E-16
   2.70000007E-03   8.65713571E-16
   2.77499994E-03   1.09391330E-15
   2.85000005E-03   1.37345143E-15
   2.92499992E-03   1.71397551E-15
   3.00000003E-03   2.12659819E-15
   3.07499990E-03   2.62406614E-15
   3.15000000E-03   3.22094273E-15
   3.22500011E-03   3.93380439E-15
   3.29999998E-03   4.78144974E-15
   3.37500009E-03   5.78512492E-15
   3.44999996E-03   6.96875859E-15
   3.52500007E-03   8.35921315E-15
   3.59999994E-03   9.98655911E-15
   3.67500004E-03   1.18843407E-14
   3.74999992E-03   1.40898840E-14
   3.82500002E-03   1.66445989E-14
   3.89999989E-03   1.95942963E-14
   3.97500023E-03   2.29895347E-14
   4.05000011E-03   2.68859523E-14
   4.12499998E-03   3.13446236E-14
   4.19999985E-03   3.64324592E-14
   4.27500019E-03   4.22225460E-14
   4.35000006E-03   4.87945662E-14
   4.42499993E-03   5.62351747E-14
   4.49999981E-03   6.46384056E-14
   4.57500014E-03   7.41060655E-14
   4.65000002E-03   8.47481739E-14
   4.72499989E-03   9.66833764E-14
   4.80000023E-03   1.10039351E-13
   4.87500010E-03   1.24953189E-13
   4.94999997E-03   1.41571826E-13
   5.02499985E-03   1.60052445E-13
   5.10000018E-03   1.80562827E-13
   5.17500006E-03   2.03281754E-13
   5.24999993E-03   2.28399331E-13
   5.32499980E-03   2.56117474E-13
   5.40000014E-03   2.86650044E-13
   5.47500001E-03   3.20223205E-13
   5.54999989E-03   3.57075616E-13
   5.62500022E-03   3.97458921E-13
   5.70000010E-03   4.41637693E-13
   5.77499997E-03   4.89889542E-13
   5.84999984E-03   5.42505494E-13
   5.92500018E-03   5.99789966E-13
   6.00000005E-03   6.62060576E-13
   6.07499992E-03   7.29648384E-13
   6.14999980E-03   8.02897570E-13
   6.22500014E-03   8.82165434E-13
   6.30000001E-03   9.67822177E-13
   6.37499988E-03   1.06025030E-12
   6.45000022E-03   1.15984457E-12
   6.52500009E-03   1.26701134E-12
   6.59999996E-03   1.38216793E-12
   6.67499984E-03   1.50574182E-12
   6.75000018E-03   1.63817083E-12
   6.82500005E-03   1.77990131E-12
   6.89999992E-03   1.93138712E-12
   6.97499979E-03   2.09308872E-12
   7.05000013E-03   2.26547231E-12
   7.12500000E-03   2.44900909E-12
   7.19999988E-03   2.64417177E-12
   7.27500021E-03   2.85143523E-12
   7.35000009E-03   3.07127349E-12
   7.42499996E-03   3.30415860E-12
   7.49999983E-03   3.55055785E-12
   7.57500017E-03   3.81093247E-12
   7.65000004E-03   4.08573522E-12
   7.72499992E-03   4.37540759E-12
   7.79999979E-03   4.68037805E-12
   7.87500013E-03   5.00105903E-12
   7.95000046E-03   5.33784215E-12
   8.02499987E-03   5.69109690E-12
   8.10000021E-03   6.06116936E-12
   8.17499962E-03   6.44837525E-12
   8.24999996E-03   6.85299950E-12
   8.32500029E-03   7.27529061E-12
   8.39999970E-03   7.71545848E-12
   8.47500004E-03   8.17367007E-12
   8.55000038E-03   8.65004249E-12
   8.62499978E-03   9.14464164E-12
   8.70000012E-03   9.65747794E-12
   8.77500046E-03   1.01885028E-11
   8.84999987E-03   1.07376009E-11
   8.92500021E-03   1.13045866E-11
   8.99999961E-03   1.18891997E-11
   9.07499995E-03   1.24911028E-11
   9.15000029E-03   1.31098708E-11
   9.22499970E-03   1.37449861E-11
   9.30000003E-03   1.43958422E-11
   9.37500037E-03   1.50617296E-11
   9.44999978E-03   1.57418280E-11
   9.52500012E-03   1.64352108E-11
   9.60000046E-03   1.71408356E-11
   9.67499986E-03   1.78575332E-11
   9.75000020E-03   1.85840093E-11
   9.82499961E-03   1.93188347E-11
   9.89999995E-03   2.00604412E-11
   9.97500028E-03   2.08071095E-11
   1.00499997E-02   2.15569767E-11
   1.01250000E-02   2.23080287E-11
   1.02000004E-02   2.30580798E-11
   1.02749998E-02   2.38047759E-11
   1.03500001E-02   2.45455982E-11
   1.04250005E-02   2.52778562E-11
   1.04999999E-02   2.59986737E-11
   1.05750002E-02   2.67049820E-11
   1.06499996E-02   2.73935267E-11
   1.07249999E-02   2.80608557E-11
   1.08000003E-02   2.87033106E-11
   1.08749997E-02   2.93170453E-11
   1.09500000E-02   2.98980077E-11
   1.10250004E-02   3.04419268E-11
   1.10999998E-02   3.09443339E-11
   1.11750001E-02   3.14005315E-11
   1.12500004E-02   3.18056068E-11
   1.13249999E-02   3.21544284E-11
   1.14000002E-02   3.24416535E-11
   1.14749996E-02   3.26617101E-11
   1.15499999E-02   3.28088147E-11
   1.16250003E-02   3.28769477E-11
   1.16999997E-02   3.28598815E-11
   1.17750000E-02   3.27511768E-11
   1.18500004E-02   3.25441687E-11
   1.19249998E-02   3.22320018E-11
   1.20000001E-02   3.18075878E-11
   1.20750004E-02   3.12636271E-11
   1.21499998E-02   3.05926361E-11
   1.22250002E-02   2.97869368E-11
   1.22999996E-02   2.88386728E-11
   1.23749999E-02   2.77397740E-11
   1.24500003E-02   2.64820284E-11
   1.25249997E-02   2.50570537E-11
   1.26000000E-02   2.34562821E-11
   1.26750004E-02   2.16710348E-11
   1.27499998E-02   1.96924872E-11
   1.28250001E-02   1.75116883E-11
   1.29000004E-02   1.51195965E-11
   1.29749998E-02   1.25070865E-11
   1.30500002E-02   9.66492338E-12
   1.31249996E-02   6.58381856E-12
   1.31999999E-02   3.25444055E-12
   1.32750003E-02  -3.32575005E-13
   1.33499997E-02  -4.18658511E-12
   1.34250000E-02  -8.31697385E-12
   1.35000004E-02  -1.27330290E-11
   1.35749998E-02  -1.74439820E-11
   1.36500001E-02  -2.24590572E-11
   1.37250004E-02  -2.77873384E-11
   1.37999998E-02  -3.34377942E-11
   1.38750002E-02  -3.94192214E-11
   1.39499996E-02  -4.57401964E-11
   1.40249999E-02  -5.24091638E-11
   1.41000003E-02  -5.94343255E-11
   1.41749997E-02  -6.68235675E-11
   1.42500000E-02  -7.45844844E-11
   1.43250003E-02  -8.27243482E-11
   1.43999998E-02  -9.12500839E-11
   1.44750001E-02  -1.00168193E-10
   1.45500004E-02  -1.09484775E-10
   1.46249998E-02  -1.19205437E-10
   1.47000002E-02  -1.29335279E-10
   1.47749996E-02  -1.39878900E-10
   1.48499999E-02  -1.50840257E-10
   1.49250003E-02  -1.62222735E-10
   1.49999997E-02  -1.74029055E-10
   1.50750000E-02  -1.86261256E-10
   1.51500003E-02  -1.98920616E-10
   1.52249997E-02  -2.12007648E-10
   1.53000001E-02  -2.25522143E-10
   1.53750004E-02  -2.39462949E-10
   1.54499998E-02  -2.53827931E-10
   1.55250002E-02  -2.68614103E-10
   1.55999996E-02  -2.83817525E-10
   1.56750008E-02  -2.99433200E-10
   1.57500003E-02  -3.15455106E-10
   1.58249997E-02  -3.31876165E-10
   1.59000009E-02  -3.48688023E-10
   1.59750003E-02  -3.65881242E-10
   1.60499997E-02  -3.83445109E-10
   1.61249992E-02  -4.01367661E-10
   1.62000004E-02  -4.19635687E-10
   1.62749998E-02  -4.38234643E-10
   1.63499992E-02  -4.57148597E-10
   1.64250005E-02  -4.76360063E-10
   1.64999999E-02  -4.95850194E-10
   1.65749993E-02  -5.15598786E-10
   1.66500006E-02  -5.35583966E-10
   1.67250000E-02  -5.55782309E-10
   1.67999994E-02  -5.76169057E-10
   1.68750007E-02  -5.96717620E-10
   1.69500001E-02  -6.17399798E-10
   1.70249995E-02  -6.38185671E-10
   1.71000008E-02  -6.59043820E-10
   1.71750002E-02  -6.79941103E-10
   1.72499996E-02  -7.00842606E-10
   1.73250008E-02  -7.21711690E-10
   1.74000002E-02  -7.42509887E-10
   1.74749997E-02  -7.63197117E-10
   1.75500009E-02  -7.83731469E-10
   1.76250003E-02  -8.04069145E-10
   1.76999997E-02  -8.24164792E-10
   1.77749991E-02  -8.43971226E-10
   1.78500004E-02  -8.63439431E-10
   1.79249998E-02  -8.82518614E-10
   1.79999992E-02  -9.01156316E-10
   1.80750005E-02  -9.19298360E-10
   1.81499999E-02  -9.36888678E-10
   1.82249993E-02  -9.53869761E-10
   1.83000006E-02  -9.70182157E-10
   1.83750000E-02  -9.85765136E-10
   1.84499994E-02  -1.00055608E-09
   1.85250007E-02  -1.01449082E-09
   1.86000001E-02  -1.02750375E-09
   1.86749995E-02  -1.03952769E-09
   1.87500007E-02  -1.05049425E-09
   1.88250002E-02  -1.06033338E-09
   1.88999996E-02  -1.06897391E-09
   1.89750008E-02  -1.07634335E-09
   1.90500002E-02  -1.08236831E-09
   1.91249996E-02  -1.08697384E-09
   1.92000009E-02  -1.09008425E-09
   1.92750003E-02  -1.09162279E-09
   1.93499997E-02  -1.09151221E-09
   1.94249991E-02  -1.08967402E-09
   1.95000004E-02  -1.08602949E-09
   1.95749998E-02  -1.08049902E-09
   1.96499992E-02  -1.07300302E-09
   1.97250005E-02  -1.06346121E-09
   1.97999999E-02  -1.05179332E-09
   1.98749993E-02  -1.03791886E-09
   1.99500006E-02  -1.02175746E-09
   2.00250000E-02  -1.00322906E-09
   2.00999994E-02  -9.82253834E-10
   2.01750007E-02  -9.58752411E-10
   2.02500001E-02  -9.32646294E-10
   2.03249995E-02  -9.03857544E-10
   2.04000007E-02  -8.72309391E-10
   2.04750001E-02  -8.37925895E-10
   2.05499995E-02  -8.00632671E-10
   2.06250008E-02  -7.60356778E-10
   2.07000002E-02  -7.17027049E-10
   2.07749996E-02  -6.70573930E-10
   2.08500009E-02  -6.20929919E-10
   2.09250003E-02  -5.68029845E-10
   2.09999997E-02  -5.11810816E-10
   2.10749991E-02  -4.52212628E-10
   2.11500004E-02  -3.89177801E-10
   2.12249998E-02  -3.22652072E-10
   2.12999992E-02  -2.52584287E-10
   2.13750005E-02  -1.78926721E-10
   2.14499999E-02  -1.01635346E-10
   2.15249993E-02  -2.06699571E-11
   2.16000006E-02   6.40055717E-11
   2.16750000E-02   1.52422991E-10
   2.17499994E-02   2.44609583E-10
   2.18250006E-02   3.40587863E-10
   2.19000001E-02   4.40375458E-10
   2.19749995E-02   5.43984746E-10
   2.20500007E-02   6.51422805E-10
   2.21250001E-02   7.62690855E-10
   2.21999995E-02   8.77784456E-10
   2.22750008E-02   9.96692839E-10
   2.23500002E-02   1.11939902E-09
   2.24249996E-02   1.24587962E-09
   2.25000009E-02   1.37610445E-09
   2.25750003E-02   1.51003665E-09
   2.26499997E-02   1.64763203E-09
   2.27249991E-02   1.78883885E-09
   2.28000004E-02   1.93359773E-09
   2.28749998E-02   2.08184159E-09
   2.29499992E-02   2.23349583E-09
   2.30250005E-02   2.38847719E-09
   2.30999999E-02   2.54669397E-09
   2.31749993E-02   2.70804690E-09
   2.32500006E-02   2.87242763E-09
   2.33250000E-02   3.03971803E-09
   2.33999994E-02   3.20979177E-09
   2.34750006E-02   3.38251427E-09
   2.35500000E-02   3.55774032E-09
   2.36249994E-02   3.73531561E-09
   2.37000007E-02   3.91507626E-09
   2.37750001E-02   4.09684953E-09
   2.38499995E-02   4.28045244E-09
   2.39250008E-02   4.46569093E-09
   2.40000002E-02   4.65236383E-09
   2.40749996E-02   4.84025886E-09
   2.41500009E-02   5.02915176E-09
   2.42250003E-02   5.21881027E-09
   2.42999997E-02   5.40899281E-09
   2.43749991E-02   5.59944535E-09
   2.44500004E-02   5.78990678E-09
   2.45249998E-02   5.98010308E-09
   2.45999992E-02   6.16975226E-09
   2.46750005E-02   6.35856079E-09
   2.47499999E-02   6.54622712E-09
   2.48249993E-02   6.73243861E-09
   2.49000005E-02   6.91687196E-09
   2.49749999E-02   7.09919723E-09
   2.50499994E-02   7.27907290E-09
   2.51250006E-02   7.45614948E-09
   2.52000000E-02   7.63006724E-09
   2.52749994E-02   7.80045895E-09
   2.53500007E-02   7.96694621E-09
   2.54250001E-02   8.12914447E-09
   2.54999995E-02   8.28666114E-09
   2.55750008E-02   8.43909564E-09
   2.56500002E-02   8.58603855E-09
   2.57249996E-02   8.72707506E-09
   2.58000009E-02   8.86178153E-09
   2.58750003E-02   8.98973074E-09
   2.59499997E-02   9.11048481E-09
   2.60249991E-02   9.22360233E-09
   2.61000004E-02   9.32863831E-09
   2.61749998E-02   9.42514156E-09
   2.62499992E-02   9.51265733E-09
   2.63250005E-02   9.59072466E-09
   2.63999999E-02   9.65888169E-09
   2.64749993E-02   9.71666214E-09
   2.65500005E-02   9.76360059E-09
   2.66249999E-02   9.79922721E-09
   2.66999993E-02   9.82307036E-09
   2.67750006E-02   9.83466020E-09
   2.68500000E-02   9.83352599E-09
   2.69249994E-02   9.81919790E-09
   2.70000007E-02   9.79120696E-09
   2.70750001E-02   9.74908954E-09
   2.71499995E-02   9.69238201E-09
   2.72250008E-02   9.62062607E-09
   2.73000002E-02   9.53336876E-09
   2.73749996E-02   9.43015888E-09
   2.74500009E-02   9.31055588E-09
   2.75250003E-02   9.17412368E-09
   2.75999997E-02   9.02043595E-09
   2.76749991E-02   8.84907170E-09
   2.77500004E-02   8.65962413E-09
   2.78249998E-02   8.45169357E-09
   2.78999992E-02   8.22489099E-09
   2.79750004E-02   7.97884248E-09
   2.80499998E-02   7.71318742E-09
   2.81249993E-02   7.42757811E-09
   2.82000005E-02   7.12168191E-09
   2.82749999E-02   6.79518175E-09
   2.83499993E-02   6.44777920E-09
   2.84250006E-02   6.07919448E-09
   2.85000000E-02   5.68916425E-09
   2.85749994E-02   5.27744559E-09
   2.86500007E-02   4.84381868E-09
   2.87250001E-02   4.38808634E-09
   2.87999995E-02   3.91007227E-09
   2.88750008E-02   3.40962503E-09
   2.89500002E-02   2.88661695E-09
   2.90249996E-02   2.34094810E-09
   2.91000009E-02   1.77254389E-09
   2.91750003E-02   1.18135868E-09
   2.92499997E-02   5.67376701E-10
   2.93249991E-02  -6.93881896E-11
   2.94000003E-02  -7.28892391E-10
   2.94749998E-02  -1.41106238E-09
   2.95499992E-02  -2.11578755E-09
   2.96250004E-02  -2.84292589E-09
   2.96999998E-02  -3.59230090E-09
   2.97749992E-02  -4.36369829E-09
   2.98500005E-02  -5.15686960E-09
   2.99249999E-02  -5.97152994E-09
   2.99999993E-02  -6.80735557E-09
   3.00750006E-02  -7.66398323E-09
   3.01500000E-02  -8.54101234E-09
   3.02249994E-02  -9.43799883E-09
   3.03000007E-02  -1.03544622E-08
   3.03750001E-02  -1.12898784E-08
   3.04499995E-02  -1.22436798E-08
   3.05250008E-02  -1.32152573E-08
   3.06000002E-02  -1.42039598E-08
   3.06749996E-02  -1.52090891E-08
   3.07500008E-02  -1.62299063E-08
   3.08250003E-02  -1.72656236E-08
   3.08999997E-02  -1.83154114E-08
   3.09749991E-02  -1.93783958E-08
   3.10500003E-02  -2.04536565E-08
   3.11249997E-02  -2.15402203E-08
   3.11999992E-02  -2.26370798E-08
   3.12750004E-02  -2.37431745E-08
   3.13500017E-02  -2.48573961E-08
   3.14249992E-02  -2.59785971E-08
   3.15000005E-02  -2.71055782E-08
   3.15750018E-02  -2.82370980E-08
   3.16499993E-02  -2.93718649E-08
   3.17250006E-02  -3.05085486E-08
   3.18000019E-02  -3.16457651E-08
   3.18749994E-02  -3.27820970E-08
   3.19500007E-02  -3.39160700E-08
   3.20249982E-02  -3.50461740E-08
   3.20999995E-02  -3.61708565E-08
   3.21750008E-02  -3.72885118E-08
   3.22499983E-02  -3.83975127E-08
   3.23249996E-02  -3.94961717E-08
   3.24000008E-02  -4.05827763E-08
   3.24749984E-02  -4.16555572E-08
   3.25499997E-02  -4.27127311E-08
   3.26250009E-02  -4.37524612E-08
   3.26999985E-02  -4.47728823E-08
   3.27749997E-02  -4.57720901E-08
   3.28500010E-02  -4.67481520E-08
   3.29249986E-02  -4.76991033E-08
   3.29999998E-02  -4.86229510E-08
   3.30750011E-02  -4.95176735E-08
   3.31499986E-02  -5.03812210E-08
   3.32249999E-02  -5.12115292E-08
   3.33000012E-02  -5.20064987E-08
   3.33749987E-02  -5.27640118E-08
   3.34500000E-02  -5.34819407E-08
   3.35250013E-02  -5.41581393E-08
   3.35999988E-02  -5.47904477E-08
   3.36750001E-02  -5.53766846E-08
   3.37500013E-02  -5.59146720E-08
   3.38249989E-02  -5.64022251E-08
   3.39000002E-02  -5.68371519E-08
   3.39750014E-02  -5.72172567E-08
   3.40499990E-02  -5.75403512E-08
   3.41250002E-02  -5.78042396E-08
   3.42000015E-02  -5.80067585E-08
   3.42749991E-02  -5.81457265E-08
   3.43500003E-02  -5.82189870E-08
   3.44250016E-02  -5.82244049E-08
   3.44999991E-02  -5.81598627E-08
   3.45750004E-02  -5.80232609E-08
   3.46500017E-02  -5.78125317E-08
   3.47249992E-02  -5.75256323E-08
   3.48000005E-02  -5.71605518E-08
   3.48750018E-02  -5.67153222E-08
   3.49499993E-02  -5.61880142E-08
   3.50250006E-02  -5.55767379E-08
   3.51000018E-02  -5.48796457E-08
   3.51749994E-02  -5.40949543E-08
   3.52500007E-02  -5.32209228E-08
   3.53249982E-02  -5.22558743E-08
   3.53999995E-02  -5.11981959E-08
   3.54750007E-02  -5.00463386E-08
   3.55499983E-02  -4.87988174E-08
   3.56249996E-02  -4.74542325E-08
   3.57000008E-02  -4.60112446E-08
   3.57749984E-02  -4.44686137E-08
   3.58499996E-02  -4.28251816E-08
   3.59250009E-02  -4.10798613E-08
   3.59999985E-02  -3.92316757E-08
   3.60749997E-02  -3.72797366E-08
   3.61500010E-02  -3.52232519E-08
   3.62249985E-02  -3.30615570E-08
   3.62999998E-02  -3.07940837E-08
   3.63750011E-02  -2.84203505E-08
   3.64499986E-02  -2.59400146E-08
   3.65249999E-02  -2.33528539E-08
   3.66000012E-02  -2.06587636E-08
   3.66749987E-02  -1.78577668E-08
   3.67500000E-02  -1.49500128E-08
   3.68250012E-02  -1.19357813E-08
   3.68999988E-02  -8.81550744E-09
   3.69750001E-02  -5.58975133E-09
   3.70500013E-02  -2.25920882E-09
   3.71249989E-02   1.17526899E-09
   3.72000001E-02   4.71268091E-09
   3.72750014E-02   8.35186498E-09
   3.73499990E-02   1.20915180E-08
   3.74250002E-02   1.59301869E-08
   3.75000015E-02   1.98662349E-08
   3.75749990E-02   2.38978650E-08
   3.76500003E-02   2.80231358E-08
   3.77250016E-02   3.22399245E-08
   3.77999991E-02   3.65459307E-08
   3.78750004E-02   4.09387120E-08
   3.79500017E-02   4.54156250E-08
   3.80249992E-02   4.99738633E-08
   3.81000005E-02   5.46104424E-08
   3.81750017E-02   5.93221969E-08
   3.82499993E-02   6.41057838E-08
   3.83250006E-02   6.89576964E-08
   3.84000018E-02   7.38742258E-08
   3.84749994E-02   7.88515067E-08
   3.85500006E-02   8.38854675E-08
   3.86249982E-02   8.89718663E-08
   3.86999995E-02   9.41062979E-08
   3.87750007E-02   9.92841578E-08
   3.88499983E-02   1.04500650E-07
   3.89249995E-02   1.09750829E-07
   3.90000008E-02   1.15029550E-07
   3.90749983E-02   1.20331535E-07
   3.91499996E-02   1.25651283E-07
   3.92250009E-02   1.30983125E-07
   3.92999984E-02   1.36321262E-07
   3.93749997E-02   1.41659669E-07
   3.94500010E-02   1.46992193E-07
   3.95249985E-02   1.52312538E-07
   3.95999998E-02   1.57614210E-07
   3.96750011E-02   1.62890558E-07
   3.97499986E-02   1.68134818E-07
   3.98249999E-02   1.73340027E-07
   3.99000011E-02   1.78499121E-07
   3.99749987E-02   1.83604897E-07
   4.00500000E-02   1.88649992E-07
   4.01250012E-02   1.93626917E-07
   4.01999988E-02   1.98528085E-07
   4.02750000E-02   2.03345749E-07
   4.03500013E-02   2.08072109E-07
   4.04249988E-02   2.12699177E-07
   4.05000001E-02   2.17218940E-07
   4.05750014E-02   2.21623253E-07
   4.06499989E-02   2.25903889E-07
   4.07250002E-02   2.30052564E-07
   4.08000015E-02   2.34060906E-07
   4.08749990E-02   2.37920489E-07
   4.09500003E-02   2.41622814E-07
   4.10250016E-02   2.45159384E-07
   4.10999991E-02   2.48521616E-07
   4.11750004E-02   2.51700897E-07
   4.12500016E-02   2.54688615E-07
   4.13249992E-02   2.57476160E-07
   4.14000005E-02   2.60054918E-07
   4.14750017E-02   2.62416307E-07
   4.15499993E-02   2.64551687E-07
   4.16250005E-02   2.66452503E-07
   4.17000018E-02   2.68110256E-07
   4.17749994E-02   2.69516477E-07
   4.18500006E-02   2.70662753E-07
   4.19249982E-02   2.71540785E-07
   4.19999994E-02   2.72142302E-07
   4.20750007E-02   2.72459204E-07
   4.21499982E-02   2.72483447E-07
   4.22249995E-02   2.72207132E-07
   4.23000008E-02   2.71622469E-07
   4.23749983E-02   2.70721841E-07
   4.24499996E-02   2.69497804E-07
   4.25250009E-02   2.67943051E-07
   4.25999984E-02   2.66050421E-07
   4.26749997E-02   2.63813092E-07
   4.27500010E-02   2.61224358E-07
   4.28249985E-02   2.58277680E-07
   4.28999998E-02   2.54966864E-07
   4.29750010E-02   2.51285940E-07
   4.30499986E-02   2.47229195E-07
   4.31249999E-02   2.42791117E-07
   4.32000011E-02   2.37966631E-07
   4.32749987E-02   2.32750835E-07
   4.33499999E-02   2.27139196E-07
   4.34250012E-02   2.21127507E-07
   4.34999987E-02   2.14711903E-07
   4.35750000E-02   2.07888860E-07
   4.36500013E-02   2.00655208E-07
   4.37249988E-02   1.93008205E-07
   4.38000001E-02   1.84945449E-07
   4.38750014E-02   1.76464994E-07
   4.39499989E-02   1.67565275E-07
   4.40250002E-02   1.58245157E-07
   4.41000015E-02   1.48503972E-07
   4.41749990E-02   1.38341477E-07
   4.42500003E-02   1.27757914E-07
   4.43250015E-02   1.16753988E-07
   4.43999991E-02   1.05330898E-07
   4.44750004E-02   9.34903071E-08
   4.45500016E-02   8.12344183E-08
   4.46249992E-02   6.85659600E-08
   4.47000004E-02   5.54881829E-08
   4.47750017E-02   4.20048529E-08
   4.48499992E-02   2.81202972E-08
   4.49250005E-02   1.38393839E-08
   4.50000018E-02  -8.32451885E-10
   4.50749993E-02  -1.58891886E-08
   4.51500006E-02  -3.13242658E-08
   4.52249981E-02  -4.71305199E-08
   4.52999994E-02  -6.33001846E-08
   4.53750007E-02  -7.98249218E-08
   4.54499982E-02  -9.66957785E-08
   4.55249995E-02  -1.13903212E-07
   4.56000008E-02  -1.31437048E-07
   4.56749983E-02  -1.49286521E-07
   4.57499996E-02  -1.67440277E-07
   4.58250009E-02  -1.85886279E-07
   4.58999984E-02  -2.04611922E-07
   4.59749997E-02  -2.23603976E-07
   4.60500009E-02  -2.42848586E-07
   4.61249985E-02  -2.62331270E-07
   4.61999997E-02  -2.82036950E-07
   4.62750010E-02  -3.01949939E-07
   4.63499986E-02  -3.22053864E-07
   4.64249998E-02  -3.42331816E-07
   4.65000011E-02  -3.62766258E-07
   4.65749986E-02  -3.83339056E-07
   4.66499999E-02  -4.04031482E-07
   4.67250012E-02  -4.24824179E-07
   4.67999987E-02  -4.45697339E-07
   4.68750000E-02  -4.66630439E-07
   4.69500013E-02  -4.87602392E-07
   4.70249988E-02  -5.08591654E-07
   4.71000001E-02  -5.29576084E-07
   4.71750014E-02  -5.50533002E-07
   4.72499989E-02  -5.71439273E-07
   4.73250002E-02  -5.92271135E-07
   4.74000014E-02  -6.13004431E-07
   4.74749990E-02  -6.33614434E-07
   4.75500003E-02  -6.54076018E-07
   4.76250015E-02  -6.74363719E-07
   4.76999991E-02  -6.94451387E-07
   4.77750003E-02  -7.14312705E-07
   4.78500016E-02  -7.33920785E-07
   4.79249991E-02  -7.53248457E-07
   4.80000004E-02  -7.72268208E-07
   4.80750017E-02  -7.90952186E-07
   4.81499992E-02  -8.09272194E-07
   4.82250005E-02  -8.27199699E-07
   4.83000018E-02  -8.44706165E-07
   4.83749993E-02  -8.61762487E-07
   4.84500006E-02  -8.78339506E-07
   4.85250019E-02  -8.94407947E-07
   4.85999994E-02  -9.09938251E-07
   4.86750007E-02  -9.24900917E-07
   4.87499982E-02  -9.39266044E-07
   4.88249995E-02  -9.53003905E-07
   4.89000008E-02  -9.66084713E-07
   4.89749983E-02  -9.78478511E-07
   4.90499996E-02  -9.90155627E-07
   4.91250008E-02  -1.00108628E-06
   4.91999984E-02  -1.01124067E-06
   4.92749996E-02  -1.02058948E-06
   4.93500009E-02  -1.02910326E-06
   4.94249985E-02  -1.03675279E-06
   4.94999997E-02  -1.04350909E-06
   4.95750010E-02  -1.04934350E-06
   4.96499985E-02  -1.05422760E-06
   4.97249998E-02  -1.05813331E-06
   4.98000011E-02  -1.06103312E-06
   4.98749986E-02  -1.06289963E-06
   4.99499999E-02  -1.06370624E-06
   5.00250012E-02  -1.06342645E-06
   5.00999987E-02  -1.06203458E-06
   5.01750000E-02  -1.05950528E-06
   5.02500013E-02  -1.05581410E-06
   5.03249988E-02  -1.05093716E-06
   5.04000001E-02  -1.04485127E-06
   5.04750013E-02  -1.03753359E-06
   5.05499989E-02  -1.02896274E-06
   5.06250001E-02  -1.01911758E-06
   5.07000014E-02  -1.00797808E-06
   5.07749990E-02  -9.95525170E-07
   5.08500002E-02  -9.81740413E-07
   5.09250015E-02  -9.66606763E-07
   5.09999990E-02  -9.50107847E-07
   5.10750003E-02  -9.32228374E-07
   5.11500016E-02  -9.12954363E-07
   5.12249991E-02  -8.92272851E-07
   5.13000004E-02  -8.70172016E-07
   5.13750017E-02  -8.46641399E-07
   5.14499992E-02  -8.21671506E-07
   5.15250005E-02  -7.95254209E-07
   5.16000018E-02  -7.67383085E-07
   5.16749993E-02  -7.38052620E-07
   5.17500006E-02  -7.07258835E-07
   5.18250018E-02  -6.74999171E-07
   5.18999994E-02  -6.41272607E-07
   5.19750006E-02  -6.06079652E-07
   5.20499982E-02  -5.69422355E-07
   5.21249995E-02  -5.31304124E-07
   5.22000007E-02  -4.91730134E-07
   5.22749983E-02  -4.50707432E-07
   5.23499995E-02  -4.08244290E-07
   5.24250008E-02  -3.64350797E-07
   5.24999984E-02  -3.19038691E-07
   5.25749996E-02  -2.72321728E-07
   5.26500009E-02  -2.24215256E-07
   5.27249984E-02  -1.74736357E-07
   5.27999997E-02  -1.23904172E-07
   5.28750010E-02  -7.17393860E-08
   5.29499985E-02  -1.82645312E-08
   5.30249998E-02   3.64957771E-08
   5.31000011E-02   9.25152719E-08
   5.31749986E-02   1.49765611E-07
   5.32499999E-02   2.08216562E-07
   5.33250012E-02   2.67836043E-07
   5.33999987E-02   3.28589977E-07
   5.34750000E-02   3.90442381E-07
   5.35500012E-02   4.53355284E-07
   5.36249988E-02   5.17288925E-07
   5.37000000E-02   5.82201494E-07
   5.37750013E-02   6.48049024E-07
   5.38499989E-02   7.14785870E-07
   5.39250001E-02   7.82364452E-07
   5.40000014E-02   8.50735148E-07
   5.40749989E-02   9.19846343E-07
   5.41500002E-02   9.89644491E-07
   5.42250015E-02   1.06007440E-06
   5.42999990E-02   1.13107853E-06
   5.43750003E-02   1.20259790E-06
   5.44500016E-02   1.27457145E-06
   5.45249991E-02   1.34693653E-06
   5.46000004E-02   1.41962823E-06
   5.46750017E-02   1.49258040E-06
   5.47499992E-02   1.56572457E-06
   5.48250005E-02   1.63899085E-06
   5.49000017E-02   1.71230761E-06
   5.49749993E-02   1.78560163E-06
   5.50500005E-02   1.85879787E-06
   5.51250018E-02   1.93181995E-06
   5.51999994E-02   2.00459021E-06
   5.52750006E-02   2.07702874E-06
   5.53499982E-02   2.14905458E-06
   5.54249994E-02   2.22058566E-06
   5.55000007E-02   2.29153829E-06
   5.55749983E-02   2.36182723E-06
   5.56499995E-02   2.43136651E-06
   5.57250008E-02   2.50006906E-06
   5.57999983E-02   2.56784574E-06
   5.58749996E-02   2.63460765E-06
   5.59500009E-02   2.70026430E-06
   5.60249984E-02   2.76472429E-06
   5.60999997E-02   2.82789506E-06
   5.61750010E-02   2.88968408E-06
   5.62499985E-02   2.94999768E-06
   5.63249998E-02   3.00874126E-06
   5.64000010E-02   3.06582047E-06
   5.64749986E-02   3.12114003E-06
   5.65499999E-02   3.17460444E-06
   5.66250011E-02   3.22611800E-06
   5.66999987E-02   3.27558473E-06
   5.67749999E-02   3.32290870E-06
   5.68500012E-02   3.36799371E-06
   5.69249988E-02   3.41074406E-06
   5.70000000E-02   3.45106378E-06
   5.70750013E-02   3.48885783E-06
   5.71499988E-02   3.52403117E-06
   5.72250001E-02   3.55648922E-06
   5.73000014E-02   3.58613852E-06
   5.73749989E-02   3.61288585E-06
   5.74500002E-02   3.63663889E-06
   5.75250015E-02   3.65730625E-06
   5.75999990E-02   3.67479788E-06
   5.76750003E-02   3.68902465E-06
   5.77500015E-02   3.69989857E-06
   5.78249991E-02   3.70733324E-06
   5.79000004E-02   3.71124383E-06
   5.79750016E-02   3.71154715E-06
   5.80499992E-02   3.70816133E-06
   5.81250004E-02   3.70100747E-06
   5.82000017E-02   3.69000736E-06
   5.82749993E-02   3.67508551E-06
   5.83500005E-02   3.65616847E-06
   5.84250018E-02   3.63318532E-06
   5.84999993E-02   3.60606737E-06
   5.85750006E-02   3.57474846E-06
   5.86499982E-02   3.53916562E-06
   5.87249994E-02   3.49925836E-06
   5.88000007E-02   3.45496869E-06
   5.88749982E-02   3.40624229E-06
   5.89499995E-02   3.35302821E-06
   5.90250008E-02   3.29527802E-06
   5.90999983E-02   3.23294717E-06
   5.91749996E-02   3.16599449E-06
   5.92500009E-02   3.09438269E-06
   5.93249984E-02   3.01807768E-06
   5.93999997E-02   2.93705011E-06
   5.94750009E-02   2.85127408E-06
   5.95499985E-02   2.76072774E-06
   5.96249998E-02   2.66539291E-06
   5.97000010E-02   2.56525664E-06
   5.97749986E-02   2.46031004E-06
   5.98499998E-02   2.35054858E-06
   5.99250011E-02   2.23597272E-06
   5.99999987E-02   2.11658721E-06
   6.00749999E-02   1.99240185E-06
   6.01500012E-02   1.86343095E-06
   6.02249987E-02   1.72969396E-06
   6.03000000E-02   1.59121544E-06
   6.03750013E-02   1.44802561E-06
   6.04499988E-02   1.30015894E-06
   6.05250001E-02   1.14765567E-06
   6.06000014E-02   9.90561489E-07
   6.06749989E-02   8.28927512E-07
   6.07500002E-02   6.62810578E-07
   6.08250014E-02   4.92272648E-07
   6.08999990E-02   3.17381335E-07
   6.09750003E-02   1.38209970E-07
   6.10500015E-02  -4.51622952E-08
   6.11249991E-02  -2.32650237E-07
   6.12000003E-02  -4.24163090E-07
   6.12750016E-02  -6.19604407E-07
   6.13499992E-02  -8.18871854E-07
   6.14250004E-02  -1.02185720E-06
   6.15000017E-02  -1.22844608E-06
   6.15749992E-02  -1.43851832E-06
   6.16500005E-02  -1.65194797E-06
   6.17250018E-02  -1.86860302E-06
   6.17999993E-02  -2.08834558E-06
   6.18750006E-02  -2.31103149E-06
   6.19499981E-02  -2.53651092E-06
   6.20249994E-02  -2.76462856E-06
   6.21000007E-02  -2.99522276E-06
   6.21749982E-02  -3.22812525E-06
   6.22499995E-02  -3.46316324E-06
   6.23250008E-02  -3.70015800E-06
   6.23999983E-02  -3.93892469E-06
   6.24749996E-02  -4.17927367E-06
   6.25500008E-02  -4.42100873E-06
   6.26249984E-02  -4.66392794E-06
   6.27000034E-02  -4.90782531E-06
   6.27750009E-02  -5.15248757E-06
   6.28499985E-02  -5.39769871E-06
   6.29250035E-02  -5.64323500E-06
   6.30000010E-02  -5.88886905E-06
   6.30749986E-02  -6.13436941E-06
   6.31500036E-02  -6.37949734E-06
   6.32250011E-02  -6.62401089E-06
   6.32999986E-02  -6.86766407E-06
   6.33750036E-02  -7.11020539E-06
   6.34500012E-02  -7.35137974E-06
   6.35249987E-02  -7.59092700E-06
   6.36000037E-02  -7.82858478E-06
   6.36750013E-02  -8.06408570E-06
   6.37499988E-02  -8.29715827E-06
   6.38249964E-02  -8.52752873E-06
   6.39000013E-02  -8.75491969E-06
   6.39749989E-02  -8.97905011E-06
   6.40499964E-02  -9.19963531E-06
   6.41250014E-02  -9.41639155E-06
   6.41999990E-02  -9.62902868E-06