   0.00000000       0.00000000    
   7.50000036E-05   0.00000000    
   1.50000007E-04   0.00000000    
   2.24999996E-04   0.00000000    
   3.00000014E-04  -4.71738032E-25
   3.75000003E-04  -5.02269040E-24
   4.49999992E-04  -2.88673898E-23
   5.24999981E-04  -1.19237437E-22
   6.00000028E-04  -3.96909874E-22
   6.75000018E-04  -1.13164407E-21
   7.50000007E-04  -2.86866176E-21
   8.24999996E-04  -6.62774346E-21
   8.99999985E-04  -1.42023599E-20
   9.74999974E-04  -2.85913072E-20
   1.04999996E-03  -5.46002341E-20
   1.12499995E-03  -9.96586362E-20
   1.20000006E-03  -1.74902145E-19
   1.27500005E-03  -2.96581214E-19
   1.35000004E-03  -4.87859700E-19
   1.42500002E-03  -7.81072118E-19
   1.50000001E-03  -1.22051740E-18
   1.57500000E-03  -1.86589385E-18
   1.64999999E-03  -2.79645942E-18
   1.72499998E-03  -4.11600771E-18
   1.79999997E-03  -5.95874940E-18
   1.87499996E-03  -8.49631287E-18
   1.94999995E-03  -1.19458289E-17
   2.02500005E-03  -1.65792786E-17
   2.09999993E-03  -2.27344090E-17
   2.17500003E-03  -3.08270428E-17
   2.24999990E-03  -4.13653602E-17
   2.32500001E-03  -5.49656058E-17
   2.40000011E-03  -7.23700318E-17
   2.47499999E-03  -9.44672685E-17
   2.55000009E-03  -1.22313755E-16
   2.62499996E-03  -1.57159340E-16
   2.70000007E-03  -2.00475043E-16
   2.77499994E-03  -2.53981903E-16
   2.85000005E-03  -3.19684528E-16
   2.92499992E-03  -3.99906754E-16
   3.00000003E-03  -4.97330736E-16
   3.07499990E-03  -6.15039676E-16
   3.15000000E-03  -7.56560617E-16
   3.22500011E-03  -9.25916914E-16
   3.29999998E-03  -1.12767921E-15
   3.37500009E-03  -1.36701758E-15
   3.44999996E-03  -1.64976798E-15
   3.52500007E-03  -1.98249035E-15
   3.59999994E-03  -2.37253674E-15
   3.67500004E-03  -2.82811998E-15
   3.74999992E-03  -3.35838780E-15
   3.82500002E-03  -3.97350313E-15
   3.89999989E-03  -4.68472324E-15
   3.97500023E-03  -5.50448892E-15
   4.05000011E-03  -6.44650264E-15
   4.12499998E-03  -7.52582421E-15
   4.19999985E-03  -8.75897204E-15
   4.27500019E-03  -1.01640032E-14
   4.35000006E-03  -1.17606103E-14
   4.42499993E-03  -1.35702547E-14
   4.49999981E-03  -1.56162331E-14
   4.57500014E-03  -1.79238084E-14
   4.65000002E-03  -2.05202761E-14
   4.72499989E-03  -2.34351197E-14
   4.80000023E-03  -2.67001370E-14
   4.87500010E-03  -3.03494582E-14
   4.94999997E-03  -3.44196853E-14
   5.02499985E-03  -3.89500274E-14
   5.10000018E-03  -4.39823416E-14
   5.17500006E-03  -4.95613140E-14
   5.24999993E-03  -5.57345816E-14
   5.32499980E-03  -6.25527326E-14
   5.40000014E-03  -7.00693030E-14
   5.47500001E-03  -7.83410541E-14
   5.54999989E-03  -8.74280913E-14
   5.62500022E-03  -9.73937998E-14
   5.70000010E-03  -1.08304770E-13
   5.77499997E-03  -1.20230947E-13
   5.84999984E-03  -1.33245913E-13
   5.92500018E-03  -1.47426694E-13
   6.00000005E-03  -1.62854024E-13
   6.07499992E-03  -1.79611846E-13
   6.14999980E-03  -1.97787560E-13
   6.22500014E-03  -2.17472470E-13
   6.30000001E-03  -2.38761024E-13
   6.37499988E-03  -2.61751314E-13
   6.45000022E-03  -2.86544632E-13
   6.52500009E-03  -3.13245523E-13
   6.59999996E-03  -3.41961648E-13
   6.67499984E-03  -3.72803811E-13
   6.75000018E-03  -4.05886099E-13
   6.82500005E-03  -4.41324277E-13
   6.89999992E-03  -4.79237039E-13
   6.97499979E-03  -5.19746301E-13
   7.05000013E-03  -5.62975393E-13
   7.12500000E-03  -6.09049378E-13
   7.19999988E-03  -6.58094781E-13
   7.27500021E-03  -7.10239430E-13
   7.35000009E-03  -7.65611912E-13
   7.42499996E-03  -8.24341246E-13
   7.49999983E-03  -8.86556128E-13
   7.57500017E-03  -9.52384872E-13
   7.65000004E-03  -1.02195628E-12
   7.72499992E-03  -1.09539732E-12
   7.79999979E-03  -1.17283212E-12
   7.87500013E-03  -1.25438223E-12
   7.95000046E-03  -1.34016680E-12
   8.02499987E-03  -1.43030195E-12
   8.10000021E-03  -1.52489935E-12
   8.17499962E-03  -1.62406525E-12
   8.24999996E-03  -1.72790005E-12
   8.32500029E-03  -1.83649753E-12
   8.39999970E-03  -1.94994455E-12
   8.47500004E-03  -2.06831817E-12
   8.55000038E-03  -2.19168932E-12
   8.62499978E-03  -2.32011892E-12
   8.70000012E-03  -2.45365772E-12
   8.77500046E-03  -2.59234257E-12
   8.84999987E-03  -2.73619582E-12
   8.92500021E-03  -2.88523047E-12
   8.99999961E-03  -3.03944088E-12
   9.07499995E-03  -3.19880776E-12
   9.15000029E-03  -3.36329770E-12
   9.22499970E-03  -3.53285543E-12
   9.30000003E-03  -3.70740938E-12
   9.37500037E-03  -3.88686479E-12
   9.44999978E-03  -4.07110977E-12
   9.52500012E-03  -4.26000511E-12
   9.60000046E-03  -4.45338991E-12
   9.67499986E-03  -4.65108204E-12
   9.75000020E-03  -4.85287244E-12
   9.82499961E-03  -5.05852478E-12
   9.89999995E-03  -5.26777623E-12
   9.97500028E-03  -5.48033450E-12
   1.00499997E-02  -5.69587780E-12
   1.01250000E-02  -5.91404703E-12
   1.02000004E-02  -6.13444972E-12
   1.02749998E-02  -6.35666606E-12
   1.03500001E-02  -6.58023939E-12
   1.04250005E-02  -6.80467488E-12
   1.04999999E-02  -7.02943996E-12
   1.05750002E-02  -7.25397390E-12
   1.06499996E-02  -7.47766692E-12
   1.07249999E-02  -7.69985985E-12
   1.08000003E-02  -7.91987483E-12
   1.08749997E-02  -8.13698154E-12
   1.09500000E-02  -8.35040544E-12
   1.10250004E-02  -8.55933380E-12
   1.10999998E-02  -8.76291487E-12
   1.11750001E-02  -8.96023967E-12
   1.12500004E-02  -9.15035409E-12
   1.13249999E-02  -9.33226153E-12
   1.14000002E-02  -9.50492116E-12
   1.14749996E-02  -9.66725571E-12
   1.15499999E-02  -9.81812635E-12
   1.16250003E-02  -9.95635952E-12
   1.16999997E-02  -1.00807366E-11
   1.17750000E-02  -1.01899661E-11
   1.18500004E-02  -1.02827235E-11
   1.19249998E-02  -1.03576809E-11
   1.20000001E-02  -1.04134089E-11
   1.20750004E-02  -1.04484251E-11
   1.21499998E-02  -1.04612456E-11
   1.22250002E-02  -1.04503177E-11
   1.22999996E-02  -1.04140498E-11
   1.23749999E-02  -1.03508287E-11
   1.24500003E-02  -1.02589742E-11
   1.25249997E-02  -1.01367569E-11
   1.26000000E-02  -9.98243328E-12
   1.26750004E-02  -9.79420017E-12
   1.27499998E-02  -9.57024997E-12
   1.28250001E-02  -9.30873347E-12
   1.29000004E-02  -9.00774507E-12
   1.29749998E-02  -8.66534795E-12
   1.30500002E-02  -8.27960703E-12
   1.31249996E-02  -7.84854733E-12
   1.31999999E-02  -7.37014616E-12
   1.32750003E-02  -6.84239601E-12
   1.33499997E-02  -6.26322431E-12
   1.34250000E-02  -5.63055895E-12
   1.35000004E-02  -4.94236336E-12
   1.35749998E-02  -4.19658232E-12
   1.36500001E-02  -3.39114088E-12
   1.37250004E-02  -2.52392812E-12
   1.37999998E-02  -1.59283318E-12
   1.38750002E-02  -5.95754945E-13
   1.39499996E-02   4.69354644E-13
   1.40249999E-02   1.60459406E-12
   1.41000003E-02   2.81201343E-12
   1.41749997E-02   4.09357097E-12
   1.42500000E-02   5.45132472E-12
   1.43250003E-02   6.88730193E-12
   1.43999998E-02   8.40342466E-12
   1.44750001E-02   1.00016141E-11
   1.45500004E-02   1.16837442E-11
   1.46249998E-02   1.34516660E-11
   1.47000002E-02   1.53071306E-11
   1.47749996E-02   1.72518250E-11
   1.48499999E-02   1.92874588E-11
   1.49250003E-02   2.14156158E-11
   1.49999997E-02   2.36377844E-11
   1.50750000E-02   2.59554010E-11
   1.51500003E-02   2.83698620E-11
   1.52249997E-02   3.08824771E-11
   1.53000001E-02   3.34943948E-11
   1.53750004E-02   3.62067182E-11
   1.54499998E-02   3.90204674E-11
   1.55250002E-02   4.19364751E-11
   1.55999996E-02   4.49555324E-11
   1.56750008E-02   4.80783018E-11
   1.57500003E-02   5.13052656E-11
   1.58249997E-02   5.46368679E-11
   1.59000009E-02   5.80733933E-11
   1.59750003E-02   6.16150464E-11
   1.60499997E-02   6.52617821E-11
   1.61249992E-02   6.90133575E-11
   1.62000004E-02   7.28695645E-11
   1.62749998E-02   7.68299938E-11
   1.63499992E-02   8.08938888E-11
   1.64250005E-02   8.50604309E-11
   1.64999999E-02   8.93287944E-11
   1.65749993E-02   9.36977856E-11
   1.66500006E-02   9.81660725E-11
   1.67250000E-02   1.02732239E-10
   1.67999994E-02   1.07394503E-10
   1.68750007E-02   1.12150920E-10
   1.69500001E-02   1.16999507E-10
   1.70249995E-02   1.21938029E-10
   1.71000008E-02   1.26963995E-10
   1.71750002E-02   1.32074823E-10
   1.72499996E-02   1.37267586E-10
   1.73250008E-02   1.42539189E-10
   1.74000002E-02   1.47886370E-10
   1.74749997E-02   1.53305618E-10
   1.75500009E-02   1.58793215E-10
   1.76250003E-02   1.64345204E-10
   1.76999997E-02   1.69957437E-10
   1.77749991E-02   1.75625542E-10
   1.78500004E-02   1.81344981E-10
   1.79249998E-02   1.87110993E-10
   1.79999992E-02   1.92918487E-10
   1.80750005E-02   1.98762215E-10
   1.81499999E-02   2.04636710E-10
   1.82249993E-02   2.10536269E-10
   1.83000006E-02   2.16454979E-10
   1.83750000E-02   2.22386692E-10
   1.84499994E-02   2.28325067E-10
   1.85250007E-02   2.34263497E-10
   1.86000001E-02   2.40195197E-10
   1.86749995E-02   2.46113158E-10
   1.87500007E-02   2.52010218E-10
   1.88250002E-02   2.57878913E-10
   1.88999996E-02   2.63711608E-10
   1.89750008E-02   2.69500505E-10
   1.90500002E-02   2.75237499E-10
   1.91249996E-02   2.80914347E-10
   1.92000009E-02   2.86522667E-10
   1.92750003E-02   2.92053742E-10
   1.93499997E-02   2.97498720E-10
   1.94249991E-02   3.02848607E-10
   1.95000004E-02   3.08094245E-10
   1.95749998E-02   3.13226250E-10
   1.96499992E-02   3.18235022E-10
   1.97250005E-02   3.23110844E-10
   1.97999999E-02   3.27843808E-10
   1.98749993E-02   3.32423838E-10
   1.99500006E-02   3.36840694E-10
   2.00250000E-02   3.41084078E-10
   2.00999994E-02   3.45143414E-10
   2.01750007E-02   3.49008045E-10
   2.02500001E-02   3.52667173E-10
   2.03249995E-02   3.56109808E-10
   2.04000007E-02   3.59324903E-10
   2.04750001E-02   3.62301189E-10
   2.05499995E-02   3.65027425E-10
   2.06250008E-02   3.67492148E-10
   2.07000002E-02   3.69683922E-10
   2.07749996E-02   3.71591008E-10
   2.08500009E-02   3.73201609E-10
   2.09250003E-02   3.74503872E-10
   2.09999997E-02   3.75485809E-10
   2.10749991E-02   3.76135401E-10
   2.11500004E-02   3.76440712E-10
   2.12249998E-02   3.76389558E-10
   2.12999992E-02   3.75969450E-10
   2.13750005E-02   3.75168174E-10
   2.14499999E-02   3.73973352E-10
   2.15249993E-02   3.72372383E-10
   2.16000006E-02   3.70352693E-10
   2.16750000E-02   3.67901765E-10
   2.17499994E-02   3.65007052E-10
   2.18250006E-02   3.61655733E-10
   2.19000001E-02   3.57834956E-10
   2.19749995E-02   3.53532092E-10
   2.20500007E-02   3.48734264E-10
   2.21250001E-02   3.43428425E-10
   2.21999995E-02   3.37601780E-10
   2.22750008E-02   3.31241506E-10
   2.23500002E-02   3.24334448E-10
   2.24249996E-02   3.16867615E-10
   2.25000009E-02   3.08828157E-10
   2.25750003E-02   3.00202835E-10
   2.26499997E-02   2.90978380E-10
   2.27249991E-02   2.81141777E-10
   2.28000004E-02   2.70679867E-10
   2.28749998E-02   2.59579302E-10
   2.29499992E-02   2.47826759E-10
   2.30250005E-02   2.35409109E-10
   2.30999999E-02   2.22313223E-10
   2.31749993E-02   2.08525669E-10
   2.32500006E-02   1.94032790E-10
   2.33250000E-02   1.78821569E-10
   2.33999994E-02   1.62878405E-10
   2.34750006E-02   1.46189755E-10
   2.35500000E-02   1.28742420E-10
   2.36249994E-02   1.10522834E-10
   2.37000007E-02   9.15179044E-11
   2.37750001E-02   7.17141138E-11
   2.38499995E-02   5.10974110E-11
   2.39250008E-02   2.96547821E-11
   2.40000002E-02   7.37323830E-12
   2.40749996E-02  -1.57614147E-11
   2.41500009E-02  -3.97632170E-11
   2.42250003E-02  -6.46455042E-11
   2.42999997E-02  -9.04210595E-11
   2.43749991E-02  -1.17103369E-10
   2.44500004E-02  -1.44706205E-10
   2.45249998E-02  -1.73243031E-10
   2.45999992E-02  -2.02727765E-10
   2.46750005E-02  -2.33173231E-10
   2.47499999E-02  -2.64591876E-10
   2.48249993E-02  -2.96997871E-10
   2.49000005E-02  -3.30405148E-10
   2.49749999E-02  -3.64826530E-10
   2.50499994E-02  -4.00274147E-10
   2.51250006E-02  -4.36760739E-10
   2.52000000E-02  -4.74300377E-10
   2.52749994E-02  -5.12904719E-10
   2.53500007E-02  -5.52586088E-10
   2.54250001E-02  -5.93357308E-10
   2.54999995E-02  -6.35230146E-10
   2.55750008E-02  -6.78216761E-10
   2.56500002E-02  -7.22328808E-10
   2.57249996E-02  -7.67576780E-10
   2.58000009E-02  -8.13971779E-10
   2.58750003E-02  -8.61525129E-10
   2.59499997E-02  -9.10247433E-10
   2.60249991E-02  -9.60149293E-10
   2.61000004E-02  -1.01123965E-09
   2.61749998E-02  -1.06352760E-09
   2.62499992E-02  -1.11702114E-09
   2.63250005E-02  -1.17172827E-09
   2.63999999E-02  -1.22765620E-09
   2.64749993E-02  -1.28481126E-09
   2.65500005E-02  -1.34319933E-09
   2.66249999E-02  -1.40282630E-09
   2.66999993E-02  -1.46369650E-09
   2.67750006E-02  -1.52581392E-09
   2.68500000E-02  -1.58918256E-09
   2.69249994E-02  -1.65380332E-09
   2.70000007E-02  -1.71967696E-09
   2.70750001E-02  -1.78680348E-09
   2.71499995E-02  -1.85518090E-09
   2.72250008E-02  -1.92480676E-09
   2.73000002E-02  -1.99567562E-09
   2.73749996E-02  -2.06778328E-09
   2.74500009E-02  -2.14112372E-09
   2.75250003E-02  -2.21568808E-09
   2.75999997E-02  -2.29146502E-09
   2.76749991E-02  -2.36844300E-09
   2.77500004E-02  -2.44661114E-09
   2.78249998E-02  -2.52595345E-09
   2.78999992E-02  -2.60645172E-09
   2.79750004E-02  -2.68808753E-09
   2.80499998E-02  -2.77084067E-09
   2.81249993E-02  -2.85468693E-09
   2.82000005E-02  -2.93959990E-09
   2.82749999E-02  -3.02555203E-09
   2.83499993E-02  -3.11251314E-09
   2.84250006E-02  -3.20044991E-09
   2.85000000E-02  -3.28932592E-09
   2.85749994E-02  -3.37910167E-09
   2.86500007E-02  -3.46973450E-09
   2.87250001E-02  -3.56118157E-09
   2.87999995E-02  -3.65339492E-09
   2.88750008E-02  -3.74632325E-09
   2.89500002E-02  -3.83991372E-09
   2.90249996E-02  -3.93410815E-09
   2.91000009E-02  -4.02884304E-09
   2.91750003E-02  -4.12405488E-09
   2.92499997E-02  -4.21967439E-09
   2.93249991E-02  -4.31562919E-09
   2.94000003E-02  -4.41184378E-09
   2.94749998E-02  -4.50823645E-09
   2.95499992E-02  -4.60472238E-09
   2.96250004E-02  -4.70121408E-09
   2.96999998E-02  -4.79761697E-09
   2.97749992E-02  -4.89383289E-09
   2.98500005E-02  -4.98976149E-09
   2.99249999E-02  -5.08529263E-09
   2.99999993E-02  -5.18031706E-09
   3.00750006E-02  -5.27471711E-09
   3.01500000E-02  -5.36837064E-09
   3.02249994E-02  -5.46115109E-09
   3.03000007E-02  -5.55292790E-09
   3.03750001E-02  -5.64356428E-09
   3.04499995E-02  -5.73291858E-09
   3.05250008E-02  -5.82084336E-09
   3.06000002E-02  -5.90718585E-09
   3.06749996E-02  -5.99178884E-09
   3.07500008E-02  -6.07449024E-09
   3.08250003E-02  -6.15512219E-09
   3.08999997E-02  -6.23350971E-09
   3.09749991E-02  -6.30947250E-09
   3.10500003E-02  -6.38282582E-09
   3.11249997E-02  -6.45337961E-09
   3.11999992E-02  -6.52093846E-09
   3.12750004E-02  -6.58530031E-09
   3.13500017E-02  -6.64625999E-09
   3.14249992E-02  -6.70360434E-09
   3.15000005E-02  -6.75711664E-09
   3.15750018E-02  -6.80657308E-09
   3.16499993E-02  -6.85174451E-09
   3.17250006E-02  -6.89239821E-09
   3.18000019E-02  -6.92829527E-09
   3.18749994E-02  -6.95919189E-09
   3.19500007E-02  -6.98483760E-09
   3.20249982E-02  -7.00497926E-09
   3.20999995E-02  -7.01935887E-09
   3.21750008E-02  -7.02771263E-09
   3.22499983E-02  -7.02977410E-09
   3.23249996E-02  -7.02527103E-09
   3.24000008E-02  -7.01392810E-09
   3.24749984E-02  -6.99546332E-09
   3.25499997E-02  -6.96959335E-09
   3.26250009E-02  -6.93603219E-09
   3.26999985E-02  -6.89448898E-09
   3.27749997E-02  -6.84467016E-09
   3.28500010E-02  -6.78627821E-09
   3.29249986E-02  -6.71901423E-09
   3.29999998E-02  -6.64257715E-09
   3.30750011E-02  -6.55666366E-09
   3.31499986E-02  -6.46096954E-09
   3.32249999E-02  -6.35518793E-09
   3.33000012E-02  -6.23901197E-09
   3.33749987E-02  -6.11213302E-09
   3.34500000E-02  -5.97424332E-09
   3.35250013E-02  -5.82503512E-09
   3.35999988E-02  -5.66420200E-09
   3.36750001E-02  -5.49143797E-09
   3.37500013E-02  -5.30643796E-09
   3.38249989E-02  -5.10889819E-09
   3.39000002E-02  -4.89851537E-09
   3.39750014E-02  -4.67499639E-09
   3.40499990E-02  -4.43804726E-09
   3.41250002E-02  -4.18737400E-09
   3.42000015E-02  -3.92269017E-09
   3.42749991E-02  -3.64371666E-09
   3.43500003E-02  -3.35017902E-09
   3.44250016E-02  -3.04180481E-09
   3.44999991E-02  -2.71833178E-09
   3.45750004E-02  -2.37950482E-09
   3.46500017E-02  -2.02507322E-09
   3.47249992E-02  -1.65479885E-09
   3.48000005E-02  -1.26844735E-09
   3.48750018E-02  -8.65796657E-10
   3.49499993E-02  -4.46639586E-10
   3.50250006E-02  -1.07745618E-11
   3.51000018E-02   4.41985309E-10
   3.51749994E-02   9.11814346E-10
   3.52500007E-02   1.39887857E-09
   3.53249982E-02   1.90332816E-09
   3.53999995E-02   2.42529752E-09
   3.54750007E-02   2.96491298E-09
   3.55499983E-02   3.52227514E-09
   3.56249996E-02   4.09746592E-09
   3.57000008E-02   4.69056305E-09
   3.57749984E-02   5.30161692E-09
   3.58499996E-02   5.93065819E-09
   3.59250009E-02   6.57771038E-09
   3.59999985E-02   7.24277127E-09
   3.60749997E-02   7.92581201E-09
   3.61500010E-02   8.62678018E-09
   3.62249985E-02   9.34560163E-09
   3.62999998E-02   1.00821937E-08
   3.63750011E-02   1.08364473E-08
   3.64499986E-02   1.16082122E-08
   3.65249999E-02   1.23973241E-08
   3.66000012E-02   1.32036018E-08
   3.66749987E-02   1.40268215E-08
   3.67500000E-02   1.48667310E-08
   3.68250012E-02   1.57230655E-08
   3.68999988E-02   1.65955445E-08
   3.69750001E-02   1.74838259E-08
   3.70500013E-02   1.83875475E-08
   3.71249989E-02   1.93063343E-08
   3.72000001E-02   2.02397690E-08
   3.72750014E-02   2.11873949E-08
   3.73499990E-02   2.21487308E-08
   3.74250002E-02   2.31232651E-08
   3.75000015E-02   2.41104612E-08
   3.75749990E-02   2.51097383E-08
   3.76500003E-02   2.61204818E-08
   3.77250016E-02   2.71420539E-08
   3.77999991E-02   2.81737744E-08
   3.78750004E-02   2.92149309E-08
   3.79500017E-02   3.02647862E-08
   3.80249992E-02   3.13225463E-08
   3.81000005E-02   3.23873977E-08
   3.81750017E-02   3.34584840E-08
   3.82499993E-02   3.45349243E-08
   3.83250006E-02   3.56157983E-08
   3.84000018E-02   3.67001469E-08
   3.84749994E-02   3.77869753E-08
   3.85500006E-02   3.88752603E-08
   3.86249982E-02   3.99639255E-08
   3.86999995E-02   4.10518730E-08
   3.87750007E-02   4.21379696E-08
   3.88499983E-02   4.32210463E-08
   3.89249995E-02   4.42999095E-08
   3.90000008E-02   4.53733087E-08
   3.90749983E-02   4.64399612E-08
   3.91499996E-02   4.74985704E-08
   3.92250009E-02   4.85478040E-08
   3.92999984E-02   4.95862693E-08
   3.93749997E-02   5.06125630E-08
   3.94500010E-02   5.16252676E-08
   3.95249985E-02   5.26229087E-08
   3.95999998E-02   5.36039906E-08
   3.96750011E-02   5.45669856E-08
   3.97499986E-02   5.55103483E-08
   3.98249999E-02   5.64325013E-08
   3.99000011E-02   5.73318317E-08
   3.99749987E-02   5.82067017E-08
   4.00500000E-02   5.90554521E-08
   4.01250012E-02   5.98764132E-08
   4.01999988E-02   6.06678867E-08
   4.02750000E-02   6.14281461E-08
   4.03500013E-02   6.21554364E-08
   4.04249988E-02   6.28480024E-08
   4.05000001E-02   6.35040891E-08
   4.05750014E-02   6.41218989E-08
   4.06499989E-02   6.46996270E-08
   4.07250002E-02   6.52354615E-08
   4.08000015E-02   6.57275763E-08
   4.08749990E-02   6.61741453E-08
   4.09500003E-02   6.65733353E-08
   4.10250016E-02   6.69232847E-08
   4.10999991E-02   6.72221745E-08
   4.11750004E-02   6.74681360E-08
   4.12500016E-02   6.76593430E-08
   4.13249992E-02   6.77939411E-08
   4.14000005E-02   6.78700971E-08
   4.14750017E-02   6.78859848E-08
   4.15499993E-02   6.78397925E-08
   4.16250005E-02   6.77297152E-08
   4.17000018E-02   6.75539766E-08
   4.17749994E-02   6.73107792E-08
   4.18500006E-02   6.69983962E-08
   4.19249982E-02   6.66150868E-08
   4.19999994E-02   6.61591457E-08
   4.20750007E-02   6.56288890E-08
   4.21499982E-02   6.50226895E-08
   4.22249995E-02   6.43389200E-08
   4.23000008E-02   6.35759960E-08
   4.23749983E-02   6.27323686E-08
   4.24499996E-02   6.18065457E-08
   4.25250009E-02   6.07970776E-08
   4.25999984E-02   5.97025505E-08
   4.26749997E-02   5.85215965E-08
   4.27500010E-02   5.72529046E-08
   4.28249985E-02   5.58952244E-08
   4.28999998E-02   5.44473444E-08
   4.29750010E-02   5.29081170E-08
   4.30499986E-02   5.12764586E-08
   4.31249999E-02   4.95513532E-08
   4.32000011E-02   4.77318807E-08
   4.32749987E-02   4.58171598E-08
   4.33499999E-02   4.38063807E-08
   4.34250012E-02   4.16988222E-08
   4.34999987E-02   3.94938375E-08
   4.35750000E-02   3.71908655E-08
   4.36500013E-02   3.47894407E-08
   4.37249988E-02   3.22891545E-08
   4.38000001E-02   2.96897067E-08
   4.38750014E-02   2.69909020E-08
   4.39499989E-02   2.41926177E-08
   4.40250002E-02   2.12948343E-08
   4.41000015E-02   1.82976283E-08
   4.41749990E-02   1.52011932E-08
   4.42500003E-02   1.20058115E-08
   4.43250015E-02   8.71188011E-09
   4.43999991E-02   5.31991029E-09
   4.44750004E-02   1.83051729E-09
   4.45500016E-02  -1.75557247E-09
   4.46249992E-02  -5.43751399E-09
   4.47000004E-02  -9.21434484E-09
   4.47750017E-02  -1.30849811E-08
   4.48499992E-02  -1.70482242E-08
   4.49250005E-02  -2.11027587E-08
   4.50000018E-02  -2.52471324E-08
   4.50749993E-02  -2.94797662E-08
   4.51500006E-02  -3.37989619E-08
   4.52249981E-02  -3.82028880E-08
   4.52999994E-02  -4.26895959E-08
   4.53750007E-02  -4.72570036E-08
   4.54499982E-02  -5.19028909E-08
   4.55249995E-02  -5.66249128E-08
   4.56000008E-02  -6.14205931E-08
   4.56749983E-02  -6.62873063E-08
   4.57499996E-02  -7.12223027E-08
   4.58250009E-02  -7.62227117E-08
   4.58999984E-02  -8.12855205E-08
   4.59749997E-02  -8.64075602E-08
   4.60500009E-02  -9.15855694E-08
   4.61249985E-02  -9.68161373E-08
   4.61999997E-02  -1.02095719E-07
   4.62750010E-02  -1.07420611E-07
   4.63499986E-02  -1.12787021E-07
   4.64249998E-02  -1.18191025E-07
   4.65000011E-02  -1.23628539E-07
   4.65749986E-02  -1.29095369E-07
   4.66499999E-02  -1.34587211E-07
   4.67250012E-02  -1.40099630E-07
   4.67999987E-02  -1.45628036E-07
   4.68750000E-02  -1.51167754E-07
   4.69500013E-02  -1.56713980E-07
   4.70249988E-02  -1.62261784E-07
   4.71000001E-02  -1.67806149E-07
   4.71750014E-02  -1.73341903E-07
   4.72499989E-02  -1.78863786E-07
   4.73250002E-02  -1.84366485E-07
   4.74000014E-02  -1.89844513E-07
   4.74749990E-02  -1.95292316E-07
   4.75500003E-02  -2.00704207E-07
   4.76250015E-02  -2.06074489E-07
   4.76999991E-02  -2.11397321E-07
   4.77750003E-02  -2.16666805E-07
   4.78500016E-02  -2.21876903E-07
   4.79249991E-02  -2.27021559E-07
   4.80000004E-02  -2.32094649E-07
   4.80750017E-02  -2.37089935E-07
   4.81499992E-02  -2.42001164E-07
   4.82250005E-02  -2.46822054E-07
   4.83000018E-02  -2.51546226E-07
   4.83749993E-02  -2.56167283E-07
   4.84500006E-02  -2.60678746E-07
   4.85250019E-02  -2.65074050E-07
   4.85999994E-02  -2.69346771E-07
   4.86750007E-02  -2.73490343E-07
   4.87499982E-02  -2.77498174E-07
   4.88249995E-02  -2.81363725E-07
   4.89000008E-02  -2.85080489E-07
   4.89749983E-02  -2.88641814E-07
   4.90499996E-02  -2.92041165E-07
   4.91250008E-02  -2.95272031E-07
   4.91999984E-02  -2.98327905E-07
   4.92749996E-02  -3.01202277E-07
   4.93500009E-02  -3.03888697E-07
   4.94249985E-02  -3.06380798E-07
   4.94999997E-02  -3.08672128E-07
   4.95750010E-02  -3.10756519E-07
   4.96499985E-02  -3.12627748E-07
   4.97249998E-02  -3.14279589E-07
   4.98000011E-02  -3.15705989E-07
   4.98749986E-02  -3.16900895E-07
   4.99499999E-02  -3.17858593E-07
   5.00250012E-02  -3.18573200E-07
   5.00999987E-02  -3.19039088E-07
   5.01750000E-02  -3.19250773E-07
   5.02500013E-02  -3.19202769E-07
   5.03249988E-02  -3.18889846E-07
   5.04000001E-02  -3.18306832E-07
   5.04750013E-02  -3.17448752E-07
   5.05499989E-02  -3.16310803E-07
   5.06250001E-02  -3.14888268E-07
   5.07000014E-02  -3.13176628E-07
   5.07749990E-02  -3.11171675E-07
   5.08500002E-02  -3.08869318E-07
   5.09250015E-02  -3.06265633E-07
   5.09999990E-02  -3.03356899E-07
   5.10750003E-02  -3.00139533E-07
   5.11500016E-02  -2.96610438E-07
   5.12249991E-02  -2.92766487E-07
   5.13000004E-02  -2.88604838E-07
   5.13750017E-02  -2.84122933E-07
   5.14499992E-02  -2.79318442E-07
   5.15250005E-02  -2.74189404E-07
   5.16000018E-02  -2.68733857E-07
   5.16749993E-02  -2.62950380E-07
   5.17500006E-02  -2.56837723E-07
   5.18250018E-02  -2.50394834E-07
   5.18999994E-02  -2.43621031E-07
   5.19750006E-02  -2.36515987E-07
   5.20499982E-02  -2.29079632E-07
   5.21249995E-02  -2.21312121E-07
   5.22000007E-02  -2.13213980E-07
   5.22749983E-02  -2.04785977E-07
   5.23499995E-02  -1.96029291E-07
   5.24250008E-02  -1.86945442E-07
   5.24999984E-02  -1.77536236E-07
   5.25749996E-02  -1.67803719E-07
   5.26500009E-02  -1.57750364E-07
   5.27249984E-02  -1.47379026E-07
   5.27999997E-02  -1.36692833E-07
   5.28750010E-02  -1.25695280E-07
   5.29499985E-02  -1.14390211E-07
   5.30249998E-02  -1.02781762E-07
   5.31000011E-02  -9.08744582E-08
   5.31749986E-02  -7.86732457E-08
   5.32499999E-02  -6.61834108E-08
   5.33250012E-02  -5.34105773E-08
   5.33999987E-02  -4.03606997E-08
   5.34750000E-02  -2.70401763E-08
   5.35500012E-02  -1.34556224E-08
   5.36249988E-02   3.86011334E-10
   5.37000000E-02   1.44772612E-08
   5.37750013E-02   2.88104403E-08
   5.38499989E-02   4.33774829E-08
   5.39250001E-02   5.81699702E-08
   5.40000014E-02   7.31789953E-08
   5.40749989E-02   8.83954314E-08
   5.41500002E-02   1.03809882E-07
   5.42250015E-02   1.19412405E-07
   5.42999990E-02   1.35192892E-07
   5.43750003E-02   1.51140853E-07
   5.44500016E-02   1.67245503E-07
   5.45249991E-02   1.83495672E-07
   5.46000004E-02   1.99879864E-07
   5.46750017E-02   2.16386354E-07
   5.47499992E-02   2.33002993E-07
   5.48250005E-02   2.49717459E-07
   5.49000017E-02   2.66517077E-07
   5.49749993E-02   2.83388886E-07
   5.50500005E-02   3.00319670E-07
   5.51250018E-02   3.17296042E-07
   5.51999994E-02   3.34304190E-07
   5.52750006E-02   3.51329987E-07
   5.53499982E-02   3.68359252E-07
   5.54249994E-02   3.85377490E-07
   5.55000007E-02   4.02370034E-07
   5.55749983E-02   4.19321907E-07
   5.56499995E-02   4.36218130E-07
   5.57250008E-02   4.53043384E-07
   5.57999983E-02   4.69782208E-07
   5.58749996E-02   4.86419026E-07
   5.59500009E-02   5.02937894E-07
   5.60249984E-02   5.19322896E-07
   5.60999997E-02   5.35558002E-07
   5.61750010E-02   5.51627068E-07
   5.62499985E-02   5.67513951E-07
   5.63249998E-02   5.83202109E-07
   5.64000010E-02   5.98675172E-07
   5.64749986E-02   6.13916768E-07
   5.65499999E-02   6.28910186E-07
   5.66250011E-02   6.43638884E-07
   5.66999987E-02   6.58086321E-07
   5.67749999E-02   6.72235899E-07
   5.68500012E-02   6.86071019E-07
   5.69249988E-02   6.99575253E-07
   5.70000000E-02   7.12732174E-07
   5.70750013E-02   7.25525297E-07
   5.71499988E-02   7.37938194E-07
   5.72250001E-02   7.49954722E-07
   5.73000014E-02   7.61558738E-07
   5.73749989E-02   7.72734325E-07
   5.74500002E-02   7.83465680E-07
   5.75250015E-02   7.93736945E-07
   5.75999990E-02   8.03532771E-07
   5.76750003E-02   8.12837811E-07
   5.77500015E-02   8.21637059E-07
   5.78249991E-02   8.29915678E-07
   5.79000004E-02   8.37659002E-07
   5.79750016E-02   8.44852877E-07
   5.80499992E-02   8.51483151E-07
   5.81250004E-02   8.57536179E-07
   5.82000017E-02   8.62998547E-07
   5.82749993E-02   8.67857182E-07
   5.83500005E-02   8.72099463E-07
   5.84250018E-02   8.75713056E-07
   5.84999993E-02   8.78685910E-07
   5.85750006E-02   8.81006486E-07
   5.86499982E-02   8.82663812E-07
   5.87249994E-02   8.83647090E-07
   5.88000007E-02   8.83946143E-07
   5.88749982E-02   8.83551195E-07
   5.89499995E-02   8.82453037E-07
   5.90250008E-02   8.80642915E-07
   5.90999983E-02   8.78112644E-07
   5.91749996E-02   8.74854379E-07
   5.92500009E-02   8.70861015E-07
   5.93249984E-02   8.66125902E-07
   5.93999997E-02   8.60643127E-07
   5.94750009E-02   8.54407119E-07
   5.95499985E-02   8.47413219E-07
   5.96249998E-02   8.39657105E-07
   5.97000010E-02   8.31135253E-07
   5.97749986E-02   8.21844765E-07
   5.98499998E-02   8.11783366E-07
   5.99250011E-02   8.00949351E-07
   5.99999987E-02   7.89341755E-07
   6.00749999E-02   7.76960405E-07
   6.01500012E-02   7.63805815E-07
   6.02249987E-02   7.49878893E-07
   6.03000000E-02   7.35181573E-07
   6.03750013E-02   7.19716411E-07
   6.04499988E-02   7.03486819E-07
   6.05250001E-02   6.86496776E-07
   6.06000014E-02   6.68750999E-07
   6.06749989E-02   6.50255060E-07
   6.07500002E-02   6.31015268E-07
   6.08250014E-02   6.11038729E-07
   6.08999990E-02   5.90333002E-07
   6.09750003E-02   5.68906614E-07
   6.10500015E-02   5.46768888E-07
   6.11249991E-02   5.23929941E-07
   6.12000003E-02   5.00400688E-07
   6.12750016E-02   4.76192724E-07
   6.13499992E-02   4.51318641E-07
   6.14250004E-02   4.25791569E-07
   6.15000017E-02   3.99625293E-07
   6.15749992E-02   3.72834535E-07
   6.16500005E-02   3.45434671E-07
   6.17250018E-02   3.17442044E-07
   6.17999993E-02   2.88873565E-07
   6.18750006E-02   2.59746884E-07
   6.19499981E-02   2.30080502E-07
   6.20249994E-02   1.99893577E-07
   6.21000007E-02   1.69206004E-07
   6.21749982E-02   1.38038203E-07
   6.22499995E-02   1.06411683E-07
   6.23250008E-02   7.43484136E-08
   6.23999983E-02   4.18712496E-08
   6.24749996E-02   9.00351704E-09
   6.25500008E-02  -2.42310758E-08
   6.26249984E-02  -5.78074477E-08
   6.27000034E-02  -9.17003007E-08
   6.27750009E-02  -1.25884128E-07
   6.28499985E-02  -1.60332007E-07
   6.29250035E-02  -1.95016753E-07
   6.30000010E-02  -2.29910739E-07
   6.30749986E-02  -2.64985573E-07
   6.31500036E-02  -3.00212889E-07
   6.32250011E-02  -3.35563243E-07
   6.32999986E-02  -3.71006649E-07
   6.33750036E-02  -4.06513180E-07
   6.34500012E-02  -4.42052055E-07
   6.35249987E-02  -4.77591925E-07
   6.36000037E-02  -5.13101213E-07
   6.36750013E-02  -5.48548144E-07
   6.37499988E-02  -5.83900146E-07
   6.38249964E-02  -6.19124876E-07
   6.39000013E-02  -6.54189478E-07
   6.39749989E-02  -6.89060528E-07
   6.40499964E-02  -7.23704602E-07
   6.41250014E-02  -7.58088220E-07
   6.41999990E-02  -7.92177161E-07