   0.00000000       0.00000000    
   7.50000036E-05   0.00000000    
   1.50000007E-04   0.00000000    
   2.24999996E-04   0.00000000    
   3.00000014E-04   3.11778277E-22
   3.75000003E-04   3.18276300E-21
   4.49999992E-04   1.75493459E-20
   5.24999981E-04   6.96795235E-20
   6.00000028E-04   2.23530154E-19
   6.75000018E-04   6.15829969E-19
   7.50000007E-04   1.51220176E-18
   8.24999996E-04   3.39205552E-18
   8.99999985E-04   7.07152322E-18
   9.74999974E-04   1.38753228E-17
   1.04999996E-03   2.58702292E-17
   1.12499995E-03   4.61746479E-17
   1.20000006E-03   7.93607271E-17
   1.27500005E-03   1.31967680E-16
   1.35000004E-03   2.13146789E-16
   1.42500002E-03   3.35461284E-16
   1.50000001E-03   5.15866147E-16
   1.57500000E-03   7.76896131E-16
   1.64999999E-03   1.14809133E-15
   1.72499998E-03   1.66769384E-15
   1.79999997E-03   2.38465228E-15
   1.87499996E-03   3.36096998E-15
   1.94999995E-03   4.67443856E-15
   2.02500005E-03   6.42180697E-15
   2.09999993E-03   8.72242342E-15
   2.17500003E-03   1.17224032E-14
   2.24999990E-03   1.55993857E-14
   2.32500001E-03   2.05679319E-14
   2.40000011E-03   2.68856084E-14
   2.47499999E-03   3.48598239E-14
   2.55000009E-03   4.48555276E-14
   2.62499996E-03   5.73037643E-14
   2.70000007E-03   7.27112665E-14
   2.77499994E-03   9.16709877E-14
   2.85000005E-03   1.14873822E-13
   2.92499992E-03   1.43121558E-13
   3.00000003E-03   1.77341160E-13
   3.07499990E-03   2.18600217E-13
   3.15000000E-03   2.68124065E-13
   3.22500011E-03   3.27314564E-13
   3.29999998E-03   3.97770277E-13
   3.37500009E-03   4.81308461E-13
   3.44999996E-03   5.79989453E-13
   3.52500007E-03   6.96141983E-13
   3.59999994E-03   8.32391664E-13
   3.67500004E-03   9.91691213E-13
   3.74999992E-03   1.17735249E-12
   3.82500002E-03   1.39308172E-12
   3.89999989E-03   1.64301699E-12
   3.97500023E-03   1.93176833E-12
   4.05000011E-03   2.26446119E-12
   4.12499998E-03   2.64678080E-12
   4.19999985E-03   3.08502117E-12
   4.27500019E-03   3.58613811E-12
   4.35000006E-03   4.15780214E-12
   4.42499993E-03   4.80846049E-12
   4.49999981E-03   5.54739501E-12
   4.57500014E-03   6.38478723E-12
   4.65000002E-03   7.33179229E-12
   4.72499989E-03   8.40060573E-12
   4.80000023E-03   9.60454286E-12
   4.87500010E-03   1.09581190E-11
   4.94999997E-03   1.24771348E-11
   5.02499985E-03   1.41787606E-11
   5.10000018E-03   1.60816308E-11
   5.17500006E-03   1.82059368E-11
   5.24999993E-03   2.05735411E-11
   5.32499980E-03   2.32080657E-11
   5.40000014E-03   2.61350056E-11
   5.47500001E-03   2.93818546E-11
   5.54999989E-03   3.29782035E-11
   5.62500022E-03   3.69558759E-11
   5.70000010E-03   4.13490457E-11
   5.77499997E-03   4.61943712E-11
   5.84999984E-03   5.15311301E-11
   5.92500018E-03   5.74013510E-11
   6.00000005E-03   6.38499600E-11
   6.07499992E-03   7.09249257E-11
   6.14999980E-03   7.86774049E-11
   6.22500014E-03   8.71618958E-11
   6.30000001E-03   9.64363867E-11
   6.37499988E-03   1.06562523E-10
   6.45000022E-03   1.17605772E-10
   6.52500009E-03   1.29635566E-10
   6.59999996E-03   1.42725470E-10
   6.67499984E-03   1.56953353E-10
   6.75000018E-03   1.72401551E-10
   6.82500005E-03   1.89157107E-10
   6.89999992E-03   2.07311779E-10
   6.97499979E-03   2.26962296E-10
   7.05000013E-03   2.48210563E-10
   7.12500000E-03   2.71163758E-10
   7.19999988E-03   2.95934555E-10
   7.27500021E-03   3.22641275E-10
   7.35000009E-03   3.51407903E-10
   7.42499996E-03   3.82364418E-10
   7.49999983E-03   4.15646850E-10
   7.57500017E-03   4.51397530E-10
   7.65000004E-03   4.89765062E-10
   7.72499992E-03   5.30904543E-10
   7.79999979E-03   5.74977621E-10
   7.87500013E-03   6.22152607E-10
   7.95000046E-03   6.72604694E-10
   8.02499987E-03   7.26515847E-10
   8.10000021E-03   7.84075138E-10
   8.17499962E-03   8.45478632E-10
   8.24999996E-03   9.10929332E-10
   8.32500029E-03   9.80637238E-10
   8.39999970E-03   1.05481957E-09
   8.47500004E-03   1.13370069E-09
   8.55000038E-03   1.21751209E-09
   8.62499978E-03   1.30649180E-09
   8.70000012E-03   1.40088519E-09
   8.77500046E-03   1.50094392E-09
   8.84999987E-03   1.60692704E-09
   8.92500021E-03   1.71909975E-09
   8.99999961E-03   1.83773352E-09
   9.07499995E-03   1.96310590E-09
   9.15000029E-03   2.09550044E-09
   9.22499970E-03   2.23520624E-09
   9.30000003E-03   2.38251774E-09
   9.37500037E-03   2.53773424E-09
   9.44999978E-03   2.70115907E-09
   9.52500012E-03   2.87310087E-09
   9.60000046E-03   3.05387071E-09
   9.67499986E-03   3.24378302E-09
   9.75000020E-03   3.44315487E-09
   9.82499961E-03   3.65230490E-09
   9.89999995E-03   3.87155374E-09
   9.97500028E-03   4.10122203E-09
   1.00499997E-02   4.34162972E-09
   1.01250000E-02   4.59309568E-09
   1.02000004E-02   4.85593832E-09
   1.02749998E-02   5.13047160E-09
   1.03500001E-02   5.41700595E-09
   1.04250005E-02   5.71584735E-09
   1.04999999E-02   6.02729511E-09
   1.05750002E-02   6.35164144E-09
   1.06499996E-02   6.68917011E-09
   1.07249999E-02   7.04015646E-09
   1.08000003E-02   7.40486250E-09
   1.08749997E-02   7.78353915E-09
   1.09500000E-02   8.17642398E-09
   1.10250004E-02   8.58373728E-09
   1.10999998E-02   9.00568242E-09
   1.11750001E-02   9.44244594E-09
   1.12500004E-02   9.89419124E-09
   1.13249999E-02   1.03610605E-08
   1.14000002E-02   1.08431726E-08
   1.14749996E-02   1.13406191E-08
   1.15499999E-02   1.18534631E-08
   1.16250003E-02   1.23817365E-08
   1.16999997E-02   1.29254403E-08
   1.17750000E-02   1.34845424E-08
   1.18500004E-02   1.40589691E-08
   1.19249998E-02   1.46486121E-08
   1.20000001E-02   1.52533186E-08
   1.20750004E-02   1.58728923E-08
   1.21499998E-02   1.65070890E-08
   1.22250002E-02   1.71556209E-08
   1.22999996E-02   1.78181416E-08
   1.23749999E-02   1.84942550E-08
   1.24500003E-02   1.91835046E-08
   1.25249997E-02   1.98853751E-08
   1.26000000E-02   2.05992912E-08
   1.26750004E-02   2.13246096E-08
   1.27499998E-02   2.20606200E-08
   1.28250001E-02   2.28065407E-08
   1.29000004E-02   2.35615154E-08
   1.29749998E-02   2.43246134E-08
   1.30500002E-02   2.50948204E-08
   1.31249996E-02   2.58710440E-08
   1.31999999E-02   2.66521045E-08
   1.32750003E-02   2.74367338E-08
   1.33499997E-02   2.82235710E-08
   1.34250000E-02   2.90111650E-08
   1.35000004E-02   2.97979668E-08
   1.35749998E-02   3.05823242E-08
   1.36500001E-02   3.13624895E-08
   1.37250004E-02   3.21366045E-08
   1.37999998E-02   3.29027046E-08
   1.38750002E-02   3.36587149E-08
   1.39499996E-02   3.44024578E-08
   1.40249999E-02   3.51316203E-08
   1.41000003E-02   3.58437937E-08
   1.41749997E-02   3.65364343E-08
   1.42500000E-02   3.72068847E-08
   1.43250003E-02   3.78523630E-08
   1.43999998E-02   3.84699597E-08
   1.44750001E-02   3.90566477E-08
   1.45500004E-02   3.96092581E-08
   1.46249998E-02   4.01245011E-08
   1.47000002E-02   4.05989518E-08
   1.47749996E-02   4.10290575E-08
   1.48499999E-02   4.14111305E-08
   1.49250003E-02   4.17413553E-08
   1.49999997E-02   4.20157740E-08
   1.50750000E-02   4.22303046E-08
   1.51500003E-02   4.23807229E-08
   1.52249997E-02   4.24626840E-08
   1.53000001E-02   4.24716937E-08
   1.53750004E-02   4.24031406E-08
   1.54499998E-02   4.22522817E-08
   1.55250002E-02   4.20142428E-08
   1.55999996E-02   4.16840216E-08
   1.56750008E-02   4.12564916E-08
   1.57500003E-02   4.07264089E-08
   1.58249997E-02   4.00884090E-08
   1.59000009E-02   3.93370101E-08
   1.59750003E-02   3.84666201E-08
   1.60499997E-02   3.74715334E-08
   1.61249992E-02   3.63459485E-08
   1.62000004E-02   3.50839642E-08
   1.62749998E-02   3.36795836E-08
   1.63499992E-02   3.21267244E-08
   1.64250005E-02   3.04192227E-08
   1.64999999E-02   2.85508310E-08
   1.65749993E-02   2.65152398E-08
   1.66500006E-02   2.43060772E-08
   1.67250000E-02   2.19169252E-08
   1.67999994E-02   1.93413037E-08
   1.68750007E-02   1.65727165E-08
   1.69500001E-02   1.36046401E-08
   1.70249995E-02   1.04305222E-08
   1.71000008E-02   7.04379888E-09
   1.71750002E-02   3.43791906E-09
   1.72499996E-02  -3.93648031E-10
   1.73250008E-02  -4.45740245E-09
   1.74000002E-02  -8.75981954E-09
   1.74749997E-02  -1.33073232E-08
   1.75500009E-02  -1.81062578E-08
   1.76250003E-02  -2.31628992E-08
   1.76999997E-02  -2.84834307E-08
   1.77749991E-02  -3.40739170E-08
   1.78500004E-02  -3.99402964E-08
   1.79249998E-02  -4.60883918E-08
   1.79999992E-02  -5.25238448E-08
   1.80750005E-02  -5.92521410E-08
   1.81499999E-02  -6.62785880E-08
   1.82249993E-02  -7.36082555E-08
   1.83000006E-02  -8.12460144E-08
   1.83750000E-02  -8.91964831E-08
   1.84499994E-02  -9.74640244E-08
   1.85250007E-02  -1.06052717E-07
   1.86000001E-02  -1.14966326E-07
   1.86749995E-02  -1.24208341E-07
   1.87500007E-02  -1.33781839E-07
   1.88250002E-02  -1.43689590E-07
   1.88999996E-02  -1.53933968E-07
   1.89750008E-02  -1.64516962E-07
   1.90500002E-02  -1.75440093E-07
   1.91249996E-02  -1.86704469E-07
   1.92000009E-02  -1.98310744E-07
   1.92750003E-02  -2.10259046E-07
   1.93499997E-02  -2.22548991E-07
   1.94249991E-02  -2.35179712E-07
   1.95000004E-02  -2.48149718E-07
   1.95749998E-02  -2.61456989E-07
   1.96499992E-02  -2.75098870E-07
   1.97250005E-02  -2.89072119E-07
   1.97999999E-02  -3.03372786E-07
   1.98749993E-02  -3.17996296E-07
   1.99500006E-02  -3.32937418E-07
   2.00250000E-02  -3.48190127E-07
   2.00999994E-02  -3.63747745E-07
   2.01750007E-02  -3.79602710E-07
   2.02500001E-02  -3.95746838E-07
   2.03249995E-02  -4.12171033E-07
   2.04000007E-02  -4.28865462E-07
   2.04750001E-02  -4.45819410E-07
   2.05499995E-02  -4.63021252E-07
   2.06250008E-02  -4.80458596E-07
   2.07000002E-02  -4.98118084E-07
   2.07749996E-02  -5.15985505E-07
   2.08500009E-02  -5.34045569E-07
   2.09250003E-02  -5.52282245E-07
   2.09999997E-02  -5.70678310E-07
   2.10749991E-02  -5.89215801E-07
   2.11500004E-02  -6.07875563E-07
   2.12249998E-02  -6.26637586E-07
   2.12999992E-02  -6.45480725E-07
   2.13750005E-02  -6.64382924E-07
   2.14499999E-02  -6.83320934E-07
   2.15249993E-02  -7.02270654E-07
   2.16000006E-02  -7.21206732E-07
   2.16750000E-02  -7.40102962E-07
   2.17499994E-02  -7.58931890E-07
   2.18250006E-02  -7.77665150E-07
   2.19000001E-02  -7.96273127E-07
   2.19749995E-02  -8.14725297E-07
   2.20500007E-02  -8.32990054E-07
   2.21250001E-02  -8.51034542E-07
   2.21999995E-02  -8.68825168E-07
   2.22750008E-02  -8.86326916E-07
   2.23500002E-02  -9.03504031E-07
   2.24249996E-02  -9.20319565E-07
   2.25000009E-02  -9.36735660E-07
   2.25750003E-02  -9.52713265E-07
   2.26499997E-02  -9.68212476E-07
   2.27249991E-02  -9.83192422E-07
   2.28000004E-02  -9.97611096E-07
   2.28749998E-02  -1.01142575E-06
   2.29499992E-02  -1.02459262E-06
   2.30250005E-02  -1.03706714E-06
   2.30999999E-02  -1.04880360E-06
   2.31749993E-02  -1.05975596E-06
   2.32500006E-02  -1.06987704E-06
   2.33250000E-02  -1.07911899E-06
   2.33999994E-02  -1.08743313E-06
   2.34750006E-02  -1.09477014E-06
   2.35500000E-02  -1.10108022E-06
   2.36249994E-02  -1.10631265E-06
   2.37000007E-02  -1.11041652E-06
   2.37750001E-02  -1.11334009E-06
   2.38499995E-02  -1.11503130E-06
   2.39250008E-02  -1.11543784E-06
   2.40000002E-02  -1.11450686E-06
   2.40749996E-02  -1.11218526E-06
   2.41500009E-02  -1.10841961E-06
   2.42250003E-02  -1.10315671E-06
   2.42999997E-02  -1.09634277E-06
   2.43749991E-02  -1.08792426E-06
   2.44500004E-02  -1.07784751E-06
   2.45249998E-02  -1.06605910E-06
   2.45999992E-02  -1.05250592E-06
   2.46750005E-02  -1.03713489E-06
   2.47499999E-02  -1.01989315E-06
   2.48249993E-02  -1.00072873E-06
   2.49000005E-02  -9.79589799E-07
   2.49749999E-02  -9.56425311E-07
   2.50499994E-02  -9.31184616E-07
   2.51250006E-02  -9.03818034E-07
   2.52000000E-02  -8.74276793E-07
   2.52749994E-02  -8.42513032E-07
   2.53500007E-02  -8.08479911E-07
   2.54250001E-02  -7.72131727E-07
   2.54999995E-02  -7.33424088E-07
   2.55750008E-02  -6.92313677E-07
   2.56500002E-02  -6.48758999E-07
   2.57249996E-02  -6.02719922E-07
   2.58000009E-02  -5.54157850E-07
   2.58750003E-02  -5.03036006E-07
   2.59499997E-02  -4.49319543E-07
   2.60249991E-02  -3.92975664E-07
   2.61000004E-02  -3.33973446E-07
   2.61749998E-02  -2.72284126E-07
   2.62499992E-02  -2.07881328E-07
   2.63250005E-02  -1.40740951E-07
   2.63999999E-02  -7.08414021E-08
   2.64749993E-02   1.83619397E-09
   2.65500005E-02   7.73079947E-08
   2.66249999E-02   1.55587443E-07
   2.66999993E-02   2.36684855E-07
   2.67750006E-02   3.20607768E-07
   2.68500000E-02   4.07360602E-07
   2.69249994E-02   4.96944210E-07
   2.70000007E-02   5.89356489E-07
   2.70750001E-02   6.84591782E-07
   2.71499995E-02   7.82640541E-07
   2.72250008E-02   8.83489975E-07
   2.73000002E-02   9.87123485E-07
   2.73749996E-02   1.09352038E-06
   2.74500009E-02   1.20265599E-06
   2.75250003E-02   1.31450201E-06
   2.75999997E-02   1.42902593E-06
   2.76749991E-02   1.54619067E-06
   2.77500004E-02   1.66595510E-06
   2.78249998E-02   1.78827383E-06
   2.78999992E-02   1.91309687E-06
   2.79750004E-02   2.04036974E-06
   2.80499998E-02   2.17003299E-06
   2.81249993E-02   2.30202340E-06
   2.82000005E-02   2.43627233E-06
   2.82749999E-02   2.57270608E-06
   2.83499993E-02   2.71124691E-06
   2.84250006E-02   2.85181159E-06
   2.85000000E-02   2.99431235E-06
   2.85749994E-02   3.13865644E-06
   2.86500007E-02   3.28474562E-06
   2.87250001E-02   3.43247666E-06
   2.87999995E-02   3.58174202E-06
   2.88750008E-02   3.73242847E-06
   2.89500002E-02   3.88441777E-06
   2.90249996E-02   4.03758622E-06
   2.91000009E-02   4.19180560E-06
   2.91750003E-02   4.34694266E-06
   2.92499997E-02   4.50285825E-06
   2.93249991E-02   4.65940911E-06
   2.94000003E-02   4.81644611E-06
   2.94749998E-02   4.97381552E-06
   2.95499992E-02   5.13135865E-06
   2.96250004E-02   5.28891178E-06
   2.96999998E-02   5.44630620E-06
   2.97749992E-02   5.60336912E-06
   2.98500005E-02   5.75992135E-06
   2.99249999E-02   5.91578100E-06
   2.99999993E-02   6.07075981E-06
   3.00750006E-02   6.22466587E-06
   3.01500000E-02   6.37730363E-06
   3.02249994E-02   6.52847166E-06
   3.03000007E-02   6.67796530E-06
   3.03750001E-02   6.82557629E-06
   3.04499995E-02   6.97109090E-06
   3.05250008E-02   7.11429311E-06
   3.06000002E-02   7.25496193E-06
   3.06749996E-02   7.39287452E-06
   3.07500008E-02   7.52780306E-06
   3.08250003E-02   7.65951700E-06
   3.08999997E-02   7.78778303E-06
   3.09749991E-02   7.91236653E-06
   3.10500003E-02   8.03302737E-06
   3.11249997E-02   8.14952364E-06
   3.11999992E-02   8.26161431E-06
   3.12750004E-02   8.36905201E-06
   3.13500017E-02   8.47159117E-06
   3.14249992E-02   8.56898350E-06
   3.15000005E-02   8.66097798E-06
   3.15750018E-02   8.74732359E-06
   3.16499993E-02   8.82776931E-06
   3.17250006E-02   8.90206229E-06
   3.18000019E-02   8.96995152E-06
   3.18749994E-02   9.03118234E-06
   3.19500007E-02   9.08550373E-06
   3.20249982E-02   9.13266376E-06
   3.20999995E-02   9.17241323E-06
   3.21750008E-02   9.20450111E-06
   3.22499983E-02   9.22868003E-06
   3.23249996E-02   9.24470260E-06
   3.24000008E-02   9.25232598E-06
   3.24749984E-02   9.25130917E-06
   3.25499997E-02   9.24141204E-06
   3.26250009E-02   9.22239906E-06
   3.26999985E-02   9.19403828E-06
   3.27749997E-02   9.15609962E-06
   3.28500010E-02   9.10836116E-06
   3.29249986E-02   9.05060006E-06
   3.29999998E-02   8.98260168E-06
   3.30750011E-02   8.90415686E-06
   3.31499986E-02   8.81506003E-06
   3.32249999E-02   8.71511202E-06
   3.33000012E-02   8.60412092E-06
   3.33749987E-02   8.48189939E-06
   3.34500000E-02   8.34826824E-06
   3.35250013E-02   8.20305650E-06
   3.35999988E-02   8.04609863E-06
   3.36750001E-02   7.87723729E-06
   3.37500013E-02   7.69632607E-06
   3.38249989E-02   7.50322397E-06
   3.39000002E-02   7.29780049E-06
   3.39750014E-02   7.07993422E-06
   3.40499990E-02   6.84951419E-06
   3.41250002E-02   6.60643764E-06
   3.42000015E-02   6.35061406E-06
   3.42749991E-02   6.08196115E-06
   3.43500003E-02   5.80041069E-06
   3.44250016E-02   5.50590403E-06
   3.44999991E-02   5.19839296E-06
   3.45750004E-02   4.87784428E-06
   3.46500017E-02   4.54423480E-06
   3.47249992E-02   4.19755406E-06
   3.48000005E-02   3.83780298E-06
   3.48750018E-02   3.46499723E-06
   3.49499993E-02   3.07916707E-06
   3.50250006E-02   2.68035342E-06
   3.51000018E-02   2.26861266E-06
   3.51749994E-02   1.84401586E-06
   3.52500007E-02   1.40664599E-06
   3.53249982E-02   9.56602207E-07
   3.53999995E-02   4.93997788E-07
   3.54750007E-02   1.89602094E-08
   3.55499983E-02  -4.68366466E-07
   3.56249996E-02  -9.67822871E-07
   3.57000008E-02  -1.47923618E-06
   3.57749984E-02  -2.00241720E-06
   3.58499996E-02  -2.53716144E-06
   3.59250009E-02  -3.08324843E-06
   3.59999985E-02  -3.64044217E-06
   3.60749997E-02  -4.20849165E-06
   3.61500010E-02  -4.78712809E-06
   3.62249985E-02  -5.37606775E-06
   3.62999998E-02  -5.97501185E-06
   3.63750011E-02  -6.58364388E-06
   3.64499986E-02  -7.20163189E-06
   3.65249999E-02  -7.82862935E-06
   3.66000012E-02  -8.46427429E-06
   3.66749987E-02  -9.10818562E-06
   3.67500000E-02  -9.75996954E-06
   3.68250012E-02  -1.04192168E-05
   3.68999988E-02  -1.10854980E-05
   3.69750001E-02  -1.17583741E-05
   3.70500013E-02  -1.24373873E-05
   3.71249989E-02  -1.31220677E-05
   3.72000001E-02  -1.38119276E-05
   3.72750014E-02  -1.45064696E-05
   3.73499990E-02  -1.52051743E-05
   3.74250002E-02  -1.59075153E-05
   3.75000015E-02  -1.66129448E-05
   3.75749990E-02  -1.73209100E-05
   3.76500003E-02  -1.80308398E-05
   3.77250016E-02  -1.87421483E-05
   3.77999991E-02  -1.94542426E-05
   3.78750004E-02  -2.01665134E-05
   3.79500017E-02  -2.08783404E-05
   3.80249992E-02  -2.15890959E-05
   3.81000005E-02  -2.22981344E-05
   3.81750017E-02  -2.30048026E-05
   3.82499993E-02  -2.37084423E-05
   3.83250006E-02  -2.44083749E-05
   3.84000018E-02  -2.51039237E-05
   3.84749994E-02  -2.57943939E-05
   3.85500006E-02  -2.64790888E-05
   3.86249982E-02  -2.71573044E-05
   3.86999995E-02  -2.78283260E-05
   3.87750007E-02  -2.84914331E-05
   3.88499983E-02  -2.91459019E-05
   3.89249995E-02  -2.97910010E-05
   3.90000008E-02  -3.04259956E-05
   3.90749983E-02  -3.10501455E-05
   3.91499996E-02  -3.16627084E-05
   3.92250009E-02  -3.22629458E-05
   3.92999984E-02  -3.28501046E-05
   3.93749997E-02  -3.34234355E-05
   3.94500010E-02  -3.39821927E-05
   3.95249985E-02  -3.45256231E-05
   3.95999998E-02  -3.50529881E-05
   3.96750011E-02  -3.55635311E-05
   3.97499986E-02  -3.60565100E-05
   3.98249999E-02  -3.65311862E-05
   3.99000011E-02  -3.69868176E-05
   3.99749987E-02  -3.74226765E-05
   4.00500000E-02  -3.78380319E-05
   4.01250012E-02  -3.82321668E-05
   4.01999988E-02  -3.86043575E-05
   4.02750000E-02  -3.89539018E-05
   4.03500013E-02  -3.92801048E-05
   4.04249988E-02  -3.95822681E-05
   4.05000001E-02  -3.98597185E-05
   4.05750014E-02  -4.01117832E-05
   4.06499989E-02  -4.03378035E-05
   4.07250002E-02  -4.05371284E-05
   4.08000015E-02  -4.07091356E-05
   4.08749990E-02  -4.08531996E-05
   4.09500003E-02  -4.09687163E-05
   4.10250016E-02  -4.10550929E-05
   4.10999991E-02  -4.11117580E-05
   4.11750004E-02  -4.11381552E-05
   4.12500016E-02  -4.11337423E-05
   4.13249992E-02  -4.10979956E-05
   4.14000005E-02  -4.10304128E-05
   4.14750017E-02  -4.09305176E-05
   4.15499993E-02  -4.07978405E-05
   4.16250005E-02  -4.06319377E-05
   4.17000018E-02  -4.04323873E-05
   4.17749994E-02  -4.01987927E-05
   4.18500006E-02  -3.99307755E-05
   4.19249982E-02  -3.96279829E-05
   4.19999994E-02  -3.92900838E-05
   4.20750007E-02  -3.89167726E-05
   4.21499982E-02  -3.85077728E-05
   4.22249995E-02  -3.80628298E-05
   4.23000008E-02  -3.75817108E-05
   4.23749983E-02  -3.70642156E-05
   4.24499996E-02  -3.65101696E-05
   4.25250009E-02  -3.59194273E-05
   4.25999984E-02  -3.52918651E-05
   4.26749997E-02  -3.46273882E-05
   4.27500010E-02  -3.39259423E-05
   4.28249985E-02  -3.31874908E-05
   4.28999998E-02  -3.24120192E-05
   4.29750010E-02  -3.15995603E-05
   4.30499986E-02  -3.07501650E-05
   4.31249999E-02  -2.98639188E-05
   4.32000011E-02  -2.89409327E-05
   4.32749987E-02  -2.79813521E-05
   4.33499999E-02  -2.69853535E-05
   4.34250012E-02  -2.59531389E-05
   4.34999987E-02  -2.48849483E-05
   4.35750000E-02  -2.37810418E-05
   4.36500013E-02  -2.26417196E-05
   4.37249988E-02  -2.14673128E-05
   4.38000001E-02  -2.02581759E-05
   4.38750014E-02  -1.90146984E-05
   4.39499989E-02  -1.77372985E-05
   4.40250002E-02  -1.64264293E-05
   4.41000015E-02  -1.50825717E-05
   4.41749990E-02  -1.37062343E-05
   4.42500003E-02  -1.22979573E-05
   4.43250015E-02  -1.08583099E-05
   4.43999991E-02  -9.38788799E-06
   4.44750004E-02  -7.88731995E-06
   4.45500016E-02  -6.35726292E-06
   4.46249992E-02  -4.79839400E-06
   4.47000004E-02  -3.21143398E-06
   4.47750017E-02  -1.59711669E-06
   4.48499992E-02   4.37939995E-08
   4.49250005E-02   1.71050340E-06
   4.50000018E-02   3.40219663E-06
   4.50749993E-02   5.11802637E-06
   4.51500006E-02   6.85712666E-06
   4.52249981E-02   8.61861190E-06
   4.52999994E-02   1.04015653E-05
   4.53750007E-02   1.22050496E-05
   4.54499982E-02   1.40281063E-05
   4.55249995E-02   1.58697530E-05
   4.56000008E-02   1.77289930E-05
   4.56749983E-02   1.96048040E-05
   4.57499996E-02   2.14961456E-05
   4.58250009E-02   2.34019608E-05
   4.58999984E-02   2.53211729E-05
   4.59749997E-02   2.72526904E-05
   4.60500009E-02   2.91954093E-05
   4.61249985E-02   3.11482036E-05
   4.61999997E-02   3.31099400E-05
   4.62750010E-02   3.50794653E-05
   4.63499986E-02   3.70556263E-05
   4.64249998E-02   3.90372406E-05
   4.65000011E-02   4.10231296E-05
   4.65749986E-02   4.30120999E-05
   4.66499999E-02   4.50029547E-05
   4.67250012E-02   4.69944825E-05
   4.67999987E-02   4.89854719E-05
   4.68750000E-02   5.09747042E-05
   4.69500013E-02   5.29609461E-05
   4.70249988E-02   5.49429715E-05
   4.71000001E-02   5.69195545E-05
   4.71750014E-02   5.88894618E-05
   4.72499989E-02   6.08514565E-05
   4.73250002E-02   6.28043053E-05
   4.74000014E-02   6.47467823E-05
   4.74749990E-02   6.66776541E-05
   4.75500003E-02   6.85956911E-05
   4.76250015E-02   7.04996783E-05
   4.76999991E-02   7.23884004E-05
   4.77750003E-02   7.42606280E-05
   4.78500016E-02   7.61151605E-05
   4.79249991E-02   7.79508118E-05
   4.80000004E-02   7.97663888E-05
   4.80750017E-02   8.15606982E-05
   4.81499992E-02   8.33325830E-05
   4.82250005E-02   8.50808792E-05
   4.83000018E-02   8.68044444E-05
   4.83749993E-02   8.85021364E-05
   4.84500006E-02   9.01728417E-05
   4.85250019E-02   9.18154401E-05
   4.85999994E-02   9.34288546E-05
   4.86750007E-02   9.50119938E-05
   4.87499982E-02   9.65637955E-05
   4.88249995E-02   9.80832119E-05
   4.89000008E-02   9.95692244E-05
   4.89749983E-02   1.01020807E-04
   4.90499996E-02   1.02436978E-04
   4.91250008E-02   1.03816768E-04
   4.91999984E-02   1.05159204E-04
   4.92749996E-02   1.06463354E-04
   4.93500009E-02   1.07728294E-04
   4.94249985E-02   1.08953143E-04
   4.94999997E-02   1.10137014E-04
   4.95750010E-02   1.11279056E-04
   4.96499985E-02   1.12378431E-04
   4.97249998E-02   1.13434318E-04
   4.98000011E-02   1.14445938E-04
   4.98749986E-02   1.15412506E-04
   4.99499999E-02   1.16333271E-04
   5.00250012E-02   1.17207514E-04
   5.00999987E-02   1.18034521E-04
   5.01750000E-02   1.18813601E-04
   5.02500013E-02   1.19544100E-04
   5.03249988E-02   1.20225377E-04
   5.04000001E-02   1.20856792E-04
   5.04750013E-02   1.21437741E-04
   5.05499989E-02   1.21967656E-04
   5.06250001E-02   1.22445985E-04
   5.07000014E-02   1.22872181E-04
   5.07749990E-02   1.23245700E-04
   5.08500002E-02   1.23566060E-04
   5.09250015E-02   1.23832768E-04
   5.09999990E-02   1.24045371E-04
   5.10750003E-02   1.24203420E-04
   5.11500016E-02   1.24306476E-04
   5.12249991E-02   1.24354148E-04
   5.13000004E-02   1.24346028E-04
   5.13750017E-02   1.24281738E-04
   5.14499992E-02   1.24160928E-04
   5.15250005E-02   1.23983220E-04
   5.16000018E-02   1.23748308E-04
   5.16749993E-02   1.23455844E-04
   5.17500006E-02   1.23105550E-04
   5.18250018E-02   1.22697093E-04
   5.18999994E-02   1.22230223E-04
   5.19750006E-02   1.21704659E-04
   5.20499982E-02   1.21120145E-04
   5.21249995E-02   1.20476419E-04
   5.22000007E-02   1.19773220E-04
   5.22749983E-02   1.19010321E-04
   5.23499995E-02   1.18187476E-04
   5.24250008E-02   1.17304480E-04
   5.24999984E-02   1.16361116E-04
   5.25749996E-02   1.15357165E-04
   5.26500009E-02   1.14292394E-04
   5.27249984E-02   1.13166592E-04
   5.27999997E-02   1.11979563E-04
   5.28750010E-02   1.10731104E-04
   5.29499985E-02   1.09421009E-04
   5.30249998E-02   1.08049077E-04
   5.31000011E-02   1.06615087E-04
   5.31749986E-02   1.05118852E-04
   5.32499999E-02   1.03560138E-04
   5.33250012E-02   1.01938742E-04
   5.33999987E-02   1.00254460E-04
   5.34750000E-02   9.85070583E-05
   5.35500012E-02   9.66962980E-05
   5.36249988E-02   9.48219749E-05
   5.37000000E-02   9.28838417E-05
   5.37750013E-02   9.08816583E-05
   5.38499989E-02   8.88151480E-05
   5.39250001E-02   8.66840783E-05
   5.40000014E-02   8.44881870E-05
   5.40749989E-02   8.22271904E-05
   5.41500002E-02   7.99008194E-05
   5.42250015E-02   7.75087901E-05
   5.42999990E-02   7.50508043E-05
   5.43750003E-02   7.25265563E-05
   5.44500016E-02   6.99357261E-05
   5.45249991E-02   6.72780079E-05
   5.46000004E-02   6.45530672E-05
   5.46750017E-02   6.17605547E-05
   5.47499992E-02   5.89001465E-05
   5.48250005E-02   5.59714863E-05
   5.49000017E-02   5.29742174E-05
   5.49749993E-02   4.99079615E-05
   5.50500005E-02   4.67723512E-05
   5.51250018E-02   4.35670154E-05
   5.51999994E-02   4.02915684E-05
   5.52750006E-02   3.69456247E-05
   5.53499982E-02   3.35288059E-05
   5.54249994E-02   3.00407173E-05
   5.55000007E-02   2.64809478E-05
   5.55749983E-02   2.28491008E-05
   5.56499995E-02   1.91448053E-05
   5.57250008E-02   1.53676538E-05
   5.57999983E-02   1.15172561E-05
   5.58749996E-02   7.59323621E-06
   5.59500009E-02   3.59521914E-06
   5.60249984E-02  -4.77181914E-07
   5.60999997E-02  -4.62432718E-06
   5.61750010E-02  -8.84655583E-06
   5.62499985E-02  -1.31442212E-05
   5.63249998E-02  -1.75176465E-05
   5.64000010E-02  -2.19671419E-05
   5.64749986E-02  -2.64929968E-05
   5.65499999E-02  -3.10954856E-05
   5.66250011E-02  -3.57748540E-05
   5.66999987E-02  -4.05313331E-05
   5.67749999E-02  -4.53651191E-05
   5.68500012E-02  -5.02763833E-05
   5.69249988E-02  -5.52652600E-05
   5.70000000E-02  -6.03318476E-05
   5.70750013E-02  -6.54762262E-05
   5.71499988E-02  -7.06984210E-05
   5.72250001E-02  -7.59984105E-05
   5.73000014E-02  -8.13761435E-05
   5.73749989E-02  -8.68315183E-05
   5.74500002E-02  -9.23643674E-05
   5.75250015E-02  -9.79744873E-05
   5.75999990E-02  -1.03661616E-04
   5.76750003E-02  -1.09425433E-04
   5.77500015E-02  -1.15265553E-04
   5.78249991E-02  -1.21181518E-04
   5.79000004E-02  -1.27172825E-04
   5.79750016E-02  -1.33238864E-04
   5.80499992E-02  -1.39378986E-04
   5.81250004E-02  -1.45592465E-04
   5.82000017E-02  -1.51878441E-04
   5.82749993E-02  -1.58236027E-04
   5.83500005E-02  -1.64664249E-04
   5.84250018E-02  -1.71161999E-04
   5.84999993E-02  -1.77728114E-04
   5.85750006E-02  -1.84361314E-04
   5.86499982E-02  -1.91060230E-04
   5.87249994E-02  -1.97823378E-04
   5.88000007E-02  -2.04649186E-04
   5.88749982E-02  -2.11535968E-04
   5.89499995E-02  -2.18481917E-04
   5.90250008E-02  -2.25485128E-04
   5.90999983E-02  -2.32543549E-04
   5.91749996E-02  -2.39655041E-04
   5.92500009E-02  -2.46817304E-04
   5.93249984E-02  -2.54027953E-04
   5.93999997E-02  -2.61284440E-04
   5.94750009E-02  -2.68584117E-04
   5.95499985E-02  -2.75924162E-04
   5.96249998E-02  -2.83301604E-04
   5.97000010E-02  -2.90713448E-04
   5.97749986E-02  -2.98156374E-04
   5.98499998E-02  -3.05627094E-04
   5.99250011E-02  -3.13122087E-04
   5.99999987E-02  -3.20637686E-04
   6.00749999E-02  -3.28170048E-04
   6.01500012E-02  -3.35715304E-04
   6.02249987E-02  -3.43269261E-04
   6.03000000E-02  -3.50827671E-04
   6.03750013E-02  -3.58386111E-04
   6.04499988E-02  -3.65940010E-04
   6.05250001E-02  -3.73484625E-04
   6.06000014E-02  -3.81015067E-04
   6.06749989E-02  -3.88526300E-04
   6.07500002E-02  -3.96013085E-04
   6.08250014E-02  -4.03470098E-04
   6.08999990E-02  -4.10891720E-04
   6.09750003E-02  -4.18272306E-04
   6.10500015E-02  -4.25606006E-04
   6.11249991E-02  -4.32886765E-04
   6.12000003E-02  -4.40108473E-04
   6.12750016E-02  -4.47264756E-04
   6.13499992E-02  -4.54349152E-04
   6.14250004E-02  -4.61355026E-04
   6.15000017E-02  -4.68275539E-04
   6.15749992E-02  -4.75103763E-04
   6.16500005E-02  -4.81832598E-04
   6.17250018E-02  -4.88454825E-04
   6.17999993E-02  -4.94963082E-04
   6.18750006E-02  -5.01349801E-04
   6.19499981E-02  -5.07607241E-04
   6.20249994E-02  -5.13727660E-04
   6.21000007E-02  -5.19703201E-04
   6.21749982E-02  -5.25525655E-04
   6.22499995E-02  -5.31186874E-04
   6.23250008E-02  -5.36678475E-04
   6.23999983E-02  -5.41992078E-04
   6.24749996E-02  -5.47119242E-04
   6.25500008E-02  -5.52051119E-04
   6.26249984E-02  -5.56779094E-04
   6.27000034E-02  -5.61294262E-04
   6.27750009E-02  -5.65587718E-04
   6.28499985E-02  -5.69650379E-04
   6.29250035E-02  -5.73473168E-04
   6.30000010E-02  -5.77046885E-04
   6.30749986E-02  -5.80362394E-04
   6.31500036E-02  -5.83410263E-04
   6.32250011E-02  -5.86181297E-04
   6.32999986E-02  -5.88665949E-04
   6.33750036E-02  -5.90854906E-04
   6.34500012E-02  -5.92738623E-04
   6.35249987E-02  -5.94307727E-04
   6.36000037E-02  -5.95552730E-04
   6.36750013E-02  -5.96464088E-04
   6.37499988E-02  -5.97032369E-04
   6.38249964E-02  -5.97248028E-04
   6.39000013E-02  -5.97101694E-04
   6.39749989E-02  -5.96583996E-04
   6.40499964E-02  -5.95685386E-04
   6.41250014E-02  -5.94396784E-04
   6.41999990E-02  -5.92708879E-04