   0.00000000       0.00000000    
   7.50000036E-05   0.00000000    
   1.50000007E-04   0.00000000    
   2.24999996E-04   0.00000000    
   3.00000014E-04  -2.56497058E-24
   3.75000003E-04  -2.60223645E-23
   4.49999992E-04  -1.42467573E-22
   5.24999981E-04  -5.61103358E-22
   6.00000028E-04  -1.78339756E-21
   6.75000018E-04  -4.86196004E-21
   7.50000007E-04  -1.17992500E-20
   8.24999996E-04  -2.61244430E-20
   8.99999985E-04  -5.36872142E-20
   9.74999974E-04  -1.03703401E-19
   1.04999996E-03  -1.90082370E-19
   1.12499995E-03  -3.33054218E-19
   1.20000006E-03  -5.61100701E-19
   1.27500005E-03  -9.13166451E-19
   1.35000004E-03  -1.44110848E-18
   1.42500002E-03  -2.21231419E-18
   1.50000001E-03  -3.31234591E-18
   1.57500000E-03  -4.84744920E-18
   1.64999999E-03  -6.94671572E-18
   1.72499998E-03  -9.76354530E-18
   1.79999997E-03  -1.34760932E-17
   1.87499996E-03  -1.82862188E-17
   1.94999995E-03  -2.44163765E-17
   2.02500005E-03  -3.21037299E-17
   2.09999993E-03  -4.15907107E-17
   2.17500003E-03  -5.31111694E-17
   2.24999990E-03  -6.68709549E-17
   2.32500001E-03  -8.30216630E-17
   2.40000011E-03  -1.01626358E-16
   2.47499999E-03  -1.22615470E-16
   2.55000009E-03  -1.45731423E-16
   2.62499996E-03  -1.70459438E-16
   2.70000007E-03  -1.95943046E-16
   2.77499994E-03  -2.20881774E-16
   2.85000005E-03  -2.43408179E-16
   2.92499992E-03  -2.60940226E-16
   3.00000003E-03  -2.70008560E-16
   3.07499990E-03  -2.66054584E-16
   3.15000000E-03  -2.43193535E-16
   3.22500011E-03  -1.93940502E-16
   3.29999998E-03  -1.08897084E-16
   3.37500009E-03   2.36135034E-17
   3.44999996E-03   2.17952920E-16
   3.52500007E-03   4.91631316E-16
   3.59999994E-03   8.65839832E-16
   3.67500004E-03   1.36603714E-15
   3.74999992E-03   2.02261219E-15
   3.82500002E-03   2.87162444E-15
   3.89999989E-03   3.95562438E-15
   3.97500023E-03   5.32456600E-15
   4.05000011E-03   7.03679143E-15
   4.12499998E-03   9.16013955E-15
   4.19999985E-03   1.17731930E-14
   4.27500019E-03   1.49665690E-14
   4.35000006E-03   1.88443536E-14
   4.42499993E-03   2.35257065E-14
   4.49999981E-03   2.91465833E-14
   4.57500014E-03   3.58614980E-14
   4.65000002E-03   4.38455661E-14
   4.72499989E-03   5.32966954E-14
   4.80000023E-03   6.44377740E-14
   4.87500010E-03   7.75191746E-14
   4.94999997E-03   9.28214279E-14
   5.02499985E-03   1.10657963E-13
   5.10000018E-03   1.31378090E-13
   5.17500006E-03   1.55370156E-13
   5.24999993E-03   1.83064881E-13
   5.32499980E-03   2.14938961E-13
   5.40000014E-03   2.51518641E-13
   5.47500001E-03   2.93383671E-13
   5.54999989E-03   3.41171427E-13
   5.62500022E-03   3.95581219E-13
   5.70000010E-03   4.57378655E-13
   5.77499997E-03   5.27400389E-13
   5.84999984E-03   6.06558803E-13
   5.92500018E-03   6.95847026E-13
   6.00000005E-03   7.96344002E-13
   6.07499992E-03   9.09220399E-13
   6.14999980E-03   1.03574321E-12
   6.22500014E-03   1.17728201E-12
   6.30000001E-03   1.33531413E-12
   6.37499988E-03   1.51143074E-12
   6.45000022E-03   1.70734303E-12
   6.52500009E-03   1.92488733E-12
   6.59999996E-03   2.16603276E-12
   6.67499984E-03   2.43288549E-12
   6.75000018E-03   2.72769676E-12
   6.82500005E-03   3.05286699E-12
   6.89999992E-03   3.41095251E-12
   6.97499979E-03   3.80467272E-12
   7.05000013E-03   4.23691334E-12
   7.12500000E-03   4.71073527E-12
   7.19999988E-03   5.22937726E-12
   7.27500021E-03   5.79626321E-12
   7.35000009E-03   6.41500611E-12
   7.42499996E-03   7.08941499E-12
   7.49999983E-03   7.82349446E-12
   7.57500017E-03   8.62145424E-12
   7.65000004E-03   9.48770836E-12
   7.72499992E-03   1.04268824E-11
   7.79999979E-03   1.14438129E-11
   7.87500013E-03   1.25435504E-11
   7.95000046E-03   1.37313589E-11
   8.02499987E-03   1.50127185E-11
   8.10000021E-03   1.63933259E-11
   8.17499962E-03   1.78790923E-11
   8.24999996E-03   1.94761412E-11
   8.32500029E-03   2.11908026E-11
   8.39999970E-03   2.30296181E-11
   8.47500004E-03   2.49993255E-11
   8.55000038E-03   2.71068567E-11
   8.62499978E-03   2.93593344E-11
   8.70000012E-03   3.17640636E-11
   8.77500046E-03   3.43285053E-11
   8.84999987E-03   3.70602854E-11
   8.92500021E-03   3.99671754E-11
   8.99999961E-03   4.30570787E-11
   9.07499995E-03   4.63379994E-11
   9.15000029E-03   4.98180490E-11
   9.22499970E-03   5.35054119E-11
   9.30000003E-03   5.74083246E-11
   9.37500037E-03   6.15350548E-11
   9.44999978E-03   6.58938945E-11
   9.52500012E-03   7.04930905E-11
   9.60000046E-03   7.53408586E-11
   9.67499986E-03   8.04453101E-11
   9.75000020E-03   8.58144597E-11
   9.82499961E-03   9.14561829E-11
   9.89999995E-03   9.73781611E-11
   9.97500028E-03   1.03587847E-10
   1.00499997E-02   1.10092414E-10
   1.01250000E-02   1.16898727E-10
   1.02000004E-02   1.24013314E-10
   1.02749998E-02   1.31442274E-10
   1.03500001E-02   1.39191242E-10
   1.04250005E-02   1.47265353E-10
   1.04999999E-02   1.55669172E-10
   1.05750002E-02   1.64406669E-10
   1.06499996E-02   1.73481063E-10
   1.07249999E-02   1.82894894E-10
   1.08000003E-02   1.92649841E-10
   1.08749997E-02   2.02746764E-10
   1.09500000E-02   2.13185511E-10
   1.10250004E-02   2.23964972E-10
   1.10999998E-02   2.35082898E-10
   1.11750001E-02   2.46535958E-10
   1.12500004E-02   2.58319532E-10
   1.13249999E-02   2.70427708E-10
   1.14000002E-02   2.82853185E-10
   1.14749996E-02   2.95587194E-10
   1.15499999E-02   3.08619463E-10
   1.16250003E-02   3.21938032E-10
   1.16999997E-02   3.35529271E-10
   1.17750000E-02   3.49377749E-10
   1.18500004E-02   3.63466229E-10
   1.19249998E-02   3.77775478E-10
   1.20000001E-02   3.92284205E-10
   1.20750004E-02   4.06969070E-10
   1.21499998E-02   4.21804508E-10
   1.22250002E-02   4.36762737E-10
   1.22999996E-02   4.51813587E-10
   1.23749999E-02   4.66924444E-10
   1.24500003E-02   4.82060336E-10
   1.25249997E-02   4.97183572E-10
   1.26000000E-02   5.12253906E-10
   1.26750004E-02   5.27228372E-10
   1.27499998E-02   5.42061285E-10
   1.28250001E-02   5.56704072E-10
   1.29000004E-02   5.71105385E-10
   1.29749998E-02   5.85210824E-10
   1.30500002E-02   5.98963101E-10
   1.31249996E-02   6.12301931E-10
   1.31999999E-02   6.25164032E-10
   1.32750003E-02   6.37482900E-10
   1.33499997E-02   6.49189091E-10
   1.34250000E-02   6.60209998E-10
   1.35000004E-02   6.70469957E-10
   1.35749998E-02   6.79890144E-10
   1.36500001E-02   6.88388457E-10
   1.37250004E-02   6.95879854E-10
   1.37999998E-02   7.02276459E-10
   1.38750002E-02   7.07487013E-10
   1.39499996E-02   7.11417480E-10
   1.40249999E-02   7.13970771E-10
   1.41000003E-02   7.15047077E-10
   1.41749997E-02   7.14543757E-10
   1.42500000E-02   7.12355397E-10
   1.43250003E-02   7.08374137E-10
   1.43999998E-02   7.02489455E-10
   1.44750001E-02   6.94588609E-10
   1.45500004E-02   6.84556745E-10
   1.46249998E-02   6.72276623E-10
   1.47000002E-02   6.57629395E-10
   1.47749996E-02   6.40494435E-10
   1.48499999E-02   6.20749674E-10
   1.49250003E-02   5.98271599E-10
   1.49999997E-02   5.72935588E-10
   1.50750000E-02   5.44616297E-10
   1.51500003E-02   5.13187881E-10
   1.52249997E-02   4.78523998E-10
   1.53000001E-02   4.40498304E-10
   1.53750004E-02   3.98984873E-10
   1.54499998E-02   3.53858304E-10
   1.55250002E-02   3.04994030E-10
   1.55999996E-02   2.52268706E-10
   1.56750008E-02   1.95560859E-10
   1.57500003E-02   1.34751002E-10
   1.58249997E-02   6.97218949E-11
   1.59000009E-02   3.59208865E-13
   1.59750003E-02  -7.34480948E-11
   1.60499997E-02  -1.51807428E-10
   1.61249992E-02  -2.34821940E-10
   1.62000004E-02  -3.22590121E-10
   1.62749998E-02  -4.15205481E-10
   1.63499992E-02  -5.12755782E-10
   1.64250005E-02  -6.15322682E-10
   1.64999999E-02  -7.22981341E-10
   1.65749993E-02  -8.35799485E-10
   1.66500006E-02  -9.53837453E-10
   1.67250000E-02  -1.07714704E-09
   1.67999994E-02  -1.20577115E-09
   1.68750007E-02  -1.33974354E-09
   1.69500001E-02  -1.47908741E-09
   1.70249995E-02  -1.62381586E-09
   1.71000008E-02  -1.77393056E-09
   1.71750002E-02  -1.92942151E-09
   1.72499996E-02  -2.09026596E-09
   1.73250008E-02  -2.25642816E-09
   1.74000002E-02  -2.42785925E-09
   1.74749997E-02  -2.60449551E-09
   1.75500009E-02  -2.78625878E-09
   1.76250003E-02  -2.97305514E-09
   1.76999997E-02  -3.16477489E-09
   1.77749991E-02  -3.36129169E-09
   1.78500004E-02  -3.56246144E-09
   1.79249998E-02  -3.76812270E-09
   1.79999992E-02  -3.97809519E-09
   1.80750005E-02  -4.19218038E-09
   1.81499999E-02  -4.41015935E-09
   1.82249993E-02  -4.63179362E-09
   1.83000006E-02  -4.85682472E-09
   1.83750000E-02  -5.08497244E-09
   1.84499994E-02  -5.31593480E-09
   1.85250007E-02  -5.54938850E-09
   1.86000001E-02  -5.78498716E-09
   1.86749995E-02  -6.02236261E-09
   1.87500007E-02  -6.26112273E-09
   1.88250002E-02  -6.50085319E-09
   1.88999996E-02  -6.74111478E-09
   1.89750008E-02  -6.98144387E-09
   1.90500002E-02  -7.22135329E-09
   1.91249996E-02  -7.46033191E-09
   1.92000009E-02  -7.69784414E-09
   1.92750003E-02  -7.93332777E-09
   1.93499997E-02  -8.16619838E-09
   1.94249991E-02  -8.39584580E-09
   1.95000004E-02  -8.62163496E-09
   1.95749998E-02  -8.84290685E-09
   1.96499992E-02  -9.05897757E-09
   1.97250005E-02  -9.26913923E-09
   1.97999999E-02  -9.47266088E-09
   1.98749993E-02  -9.66878666E-09
   1.99500006E-02  -9.85673854E-09
   2.00250000E-02  -1.00357145E-08
   2.00999994E-02  -1.02048929E-08
   2.01750007E-02  -1.03634292E-08
   2.02500001E-02  -1.05104583E-08
   2.03249995E-02  -1.06450946E-08
   2.04000007E-02  -1.07664331E-08
   2.04750001E-02  -1.08735509E-08
   2.05499995E-02  -1.09655085E-08
   2.06250008E-02  -1.10413483E-08
   2.07000002E-02  -1.11000986E-08
   2.07749996E-02  -1.11407719E-08
   2.08500009E-02  -1.11623724E-08
   2.09250003E-02  -1.11638885E-08
   2.09999997E-02  -1.11443015E-08
   2.10749991E-02  -1.11025829E-08
   2.11500004E-02  -1.10376970E-08
   2.12249998E-02  -1.09486047E-08
   2.12999992E-02  -1.08342633E-08
   2.13750005E-02  -1.06936273E-08
   2.14499999E-02  -1.05256541E-08
   2.15249993E-02  -1.03293019E-08
   2.16000006E-02  -1.01035340E-08
   2.16750000E-02  -9.84732207E-09
   2.17499994E-02  -9.55964463E-09
   2.18250006E-02  -9.23949450E-09
   2.19000001E-02  -8.88587692E-09
   2.19749995E-02  -8.49781312E-09
   2.20500007E-02  -8.07434564E-09
   2.21250001E-02  -7.61453567E-09
   2.21999995E-02  -7.11747106E-09
   2.22750008E-02  -6.58226673E-09
   2.23500002E-02  -6.00806782E-09
   2.24249996E-02  -5.39405232E-09
   2.25000009E-02  -4.73943329E-09
   2.25750003E-02  -4.04346556E-09
   2.26499997E-02  -3.30544325E-09
   2.27249991E-02  -2.52470711E-09
   2.28000004E-02  -1.70064662E-09
   2.28749998E-02  -8.32702296E-10
   2.29499992E-02   7.96295530E-11
   2.30250005E-02   1.03679521E-09
   2.30999999E-02   2.03917905E-09
   2.31749993E-02   3.08710035E-09
   2.32500006E-02   4.18081036E-09
   2.33250000E-02   5.32048894E-09
   2.33999994E-02   6.50624177E-09
   2.34750006E-02   7.73809372E-09
   2.35500000E-02   9.01599062E-09
   2.36249994E-02   1.03397912E-08
   2.37000007E-02   1.17092691E-08
   2.37750001E-02   1.31241036E-08
   2.38499995E-02   1.45838790E-08
   2.39250008E-02   1.60880838E-08
   2.40000002E-02   1.76361024E-08
   2.40749996E-02   1.92272172E-08
   2.41500009E-02   2.08606039E-08
   2.42250003E-02   2.25353265E-08
   2.42999997E-02   2.42503386E-08
   2.43749991E-02   2.60044715E-08
   2.44500004E-02   2.77964425E-08
   2.45249998E-02   2.96248501E-08
   2.45999992E-02   3.14881667E-08
   2.46750005E-02   3.33847403E-08
   2.47499999E-02   3.53127874E-08
   2.48249993E-02   3.72703965E-08
   2.49000005E-02   3.92555251E-08
   2.49749999E-02   4.12659915E-08
   2.50499994E-02   4.32994867E-08
   2.51250006E-02   4.53535627E-08
   2.52000000E-02   4.74256296E-08
   2.52749994E-02   4.95129626E-08
   2.53500007E-02   5.16126981E-08
   2.54250001E-02   5.37218234E-08
   2.54999995E-02   5.58371873E-08
   2.55750008E-02   5.79555071E-08
   2.56500002E-02   6.00733614E-08
   2.57249996E-02   6.21871692E-08
   2.58000009E-02   6.42932250E-08
   2.58750003E-02   6.63876776E-08
   2.59499997E-02   6.84665409E-08
   2.60249991E-02   7.05256937E-08
   2.61000004E-02   7.25608729E-08
   2.61749998E-02   7.45676942E-08
   2.62499992E-02   7.65416175E-08
   2.63250005E-02   7.84780028E-08
   2.63999999E-02   8.03720752E-08
   2.64749993E-02   8.22189392E-08
   2.65500005E-02   8.40135712E-08
   2.66249999E-02   8.57508482E-08
   2.66999993E-02   8.74255193E-08
   2.67750006E-02   8.90322411E-08
   2.68500000E-02   9.05655568E-08
   2.69249994E-02   9.20199241E-08
   2.70000007E-02   9.33897155E-08
   2.70750001E-02   9.46691969E-08
   2.71499995E-02   9.58525774E-08
   2.72250008E-02   9.69339808E-08
   2.73000002E-02   9.79074741E-08
   2.73749996E-02   9.87670603E-08
   2.74500009E-02   9.95066927E-08
   2.75250003E-02   1.00120289E-07
   2.75999997E-02   1.00601724E-07
   2.76749991E-02   1.00944860E-07
   2.77500004E-02   1.01143534E-07
   2.78249998E-02   1.01191581E-07
   2.78999992E-02   1.01082819E-07
   2.79750004E-02   1.00811114E-07
   2.80499998E-02   1.00370329E-07
   2.81249993E-02   9.97543737E-08
   2.82000005E-02   9.89571944E-08
   2.82749999E-02   9.79728014E-08
   2.83499993E-02   9.67952687E-08
   2.84250006E-02   9.54187556E-08
   2.85000000E-02   9.38374995E-08
   2.85749994E-02   9.20458660E-08
   2.86500007E-02   9.00383128E-08
   2.87250001E-02   8.78094326E-08
   2.87999995E-02   8.53539888E-08
   2.88750008E-02   8.26668582E-08
   2.89500002E-02   7.97431099E-08
   2.90249996E-02   7.65780044E-08
   2.91000009E-02   7.31669942E-08
   2.91750003E-02   6.95057309E-08
   2.92499997E-02   6.55901218E-08
   2.93249991E-02   6.14162801E-08
   2.94000003E-02   5.69805891E-08
   2.94749998E-02   5.22797059E-08
   2.95499992E-02   4.73105679E-08
   2.96250004E-02   4.20704005E-08
   2.96999998E-02   3.65567630E-08
   2.97749992E-02   3.07675236E-08
   2.98500005E-02   2.47009062E-08
   2.99249999E-02   1.83554825E-08
   2.99999993E-02   1.17301990E-08
   3.00750006E-02   4.82438622E-09
   3.01500000E-02  -2.36222242E-09
   3.02249994E-02  -9.82948212E-09
   3.03000007E-02  -1.75768200E-08
   3.03750001E-02  -2.56032209E-08
   3.04499995E-02  -3.39072201E-08
   3.05250008E-02  -4.24868780E-08
   3.06000002E-02  -5.13397680E-08
   3.06749996E-02  -6.04629875E-08
   3.07500008E-02  -6.98531295E-08
   3.08250003E-02  -7.95062434E-08
   3.08999997E-02  -8.94178811E-08
   3.09749991E-02  -9.95830263E-08
   3.10500003E-02  -1.09996137E-07
   3.11249997E-02  -1.20651109E-07
   3.11999992E-02  -1.31541256E-07
   3.12750004E-02  -1.42659303E-07
   3.13500017E-02  -1.53997419E-07
   3.14249992E-02  -1.65547178E-07
   3.15000005E-02  -1.77299512E-07
   3.15750018E-02  -1.89244787E-07
   3.16499993E-02  -2.01372714E-07
   3.17250006E-02  -2.13672450E-07
   3.18000019E-02  -2.26132485E-07
   3.18749994E-02  -2.38740682E-07
   3.19500007E-02  -2.51484295E-07
   3.20249982E-02  -2.64349950E-07
   3.20999995E-02  -2.77323608E-07
   3.21750008E-02  -2.90390631E-07
   3.22499983E-02  -3.03535757E-07
   3.23249996E-02  -3.16743098E-07
   3.24000008E-02  -3.29996112E-07
   3.24749984E-02  -3.43277662E-07
   3.25499997E-02  -3.56569956E-07
   3.26250009E-02  -3.69854718E-07
   3.26999985E-02  -3.83112905E-07
   3.27749997E-02  -3.96324992E-07
   3.28500010E-02  -4.09470829E-07
   3.29249986E-02  -4.22529666E-07
   3.29999998E-02  -4.35480331E-07
   3.30750011E-02  -4.48300966E-07
   3.31499986E-02  -4.60969147E-07
   3.32249999E-02  -4.73462080E-07
   3.33000012E-02  -4.85756289E-07
   3.33749987E-02  -4.97828012E-07
   3.34500000E-02  -5.09652864E-07
   3.35250013E-02  -5.21206118E-07
   3.35999988E-02  -5.32462593E-07
   3.36750001E-02  -5.43396652E-07
   3.37500013E-02  -5.53982318E-07
   3.38249989E-02  -5.64193272E-07
   3.39000002E-02  -5.74002854E-07
   3.39750014E-02  -5.83384121E-07
   3.40499990E-02  -5.92309846E-07
   3.41250002E-02  -6.00752628E-07
   3.42000015E-02  -6.08684729E-07
   3.42749991E-02  -6.16078296E-07
   3.43500003E-02  -6.22905418E-07
   3.44250016E-02  -6.29137958E-07
   3.44999991E-02  -6.34747664E-07
   3.45750004E-02  -6.39706514E-07
   3.46500017E-02  -6.43986198E-07
   3.47249992E-02  -6.47558579E-07
   3.48000005E-02  -6.50395521E-07
   3.48750018E-02  -6.52469168E-07
   3.49499993E-02  -6.53751613E-07
   3.50250006E-02  -6.54215455E-07
   3.51000018E-02  -6.53833240E-07
   3.51749994E-02  -6.52578024E-07
   3.52500007E-02  -6.50423033E-07
   3.53249982E-02  -6.47342006E-07
   3.53999995E-02  -6.43309136E-07
   3.54750007E-02  -6.38299014E-07
   3.55499983E-02  -6.32286856E-07
   3.56249996E-02  -6.25248447E-07
   3.57000008E-02  -6.17160083E-07
   3.57749984E-02  -6.07998857E-07
   3.58499996E-02  -5.97742599E-07
   3.59250009E-02  -5.86369936E-07
   3.59999985E-02  -5.73860234E-07
   3.60749997E-02  -5.60193882E-07
   3.61500010E-02  -5.45352066E-07
   3.62249985E-02  -5.29317106E-07
   3.62999998E-02  -5.12072290E-07
   3.63750011E-02  -4.93601988E-07
   3.64499986E-02  -4.73891873E-07
   3.65249999E-02  -4.52928646E-07
   3.66000012E-02  -4.30700339E-07
   3.66749987E-02  -4.07196239E-07
   3.67500000E-02  -3.82407080E-07
   3.68250012E-02  -3.56324932E-07
   3.68999988E-02  -3.28943315E-07
   3.69750001E-02  -3.00257341E-07
   3.70500013E-02  -2.70263655E-07
   3.71249989E-02  -2.38960439E-07
   3.72000001E-02  -2.06347593E-07
   3.72750014E-02  -1.72426681E-07
   3.73499990E-02  -1.37201056E-07
   3.74250002E-02  -1.00675777E-07
   3.75000015E-02  -6.28578221E-08
   3.75749990E-02  -2.37560123E-08
   3.76500003E-02   1.66189427E-08
   3.77250016E-02   5.82543613E-08
   3.77999991E-02   1.01135576E-07
   3.78750004E-02   1.45245906E-07
   3.79500017E-02   1.90566595E-07
   3.80249992E-02   2.37076776E-07
   3.81000005E-02   2.84753526E-07
   3.81750017E-02   3.33571734E-07
   3.82499993E-02   3.83504130E-07
   3.83250006E-02   4.34521269E-07
   3.84000018E-02   4.86591375E-07
   3.84749994E-02   5.39680570E-07
   3.85500006E-02   5.93752702E-07
   3.86249982E-02   6.48769287E-07
   3.86999995E-02   7.04689626E-07
   3.87750007E-02   7.61470687E-07
   3.88499983E-02   8.19067168E-07
   3.89249995E-02   8.77431432E-07
   3.90000008E-02   9.36513686E-07
   3.90749983E-02   9.96261633E-07
   3.91499996E-02   1.05662082E-06
   3.92250009E-02   1.11753468E-06
   3.92999984E-02   1.17894376E-06
   3.93749997E-02   1.24078724E-06
   3.94500010E-02   1.30300134E-06
   3.95249985E-02   1.36552035E-06
   3.95999998E-02   1.42827651E-06
   3.96750011E-02   1.49119944E-06
   3.97499986E-02   1.55421719E-06
   3.98249999E-02   1.61725563E-06
   3.99000011E-02   1.68023803E-06
   3.99749987E-02   1.74308616E-06
   4.00500000E-02   1.80572010E-06
   4.01250012E-02   1.86805698E-06
   4.01999988E-02   1.93001301E-06
   4.02750000E-02   1.99150236E-06
   4.03500013E-02   2.05243714E-06
   4.04249988E-02   2.11272845E-06
   4.05000001E-02   2.17228512E-06
   4.05750014E-02   2.23101461E-06
   4.06499989E-02   2.28882345E-06
   4.07250002E-02   2.34561594E-06
   4.08000015E-02   2.40129543E-06
   4.08749990E-02   2.45576439E-06
   4.09500003E-02   2.50892344E-06
   4.10250016E-02   2.56067324E-06
   4.10999991E-02   2.61091236E-06
   4.11750004E-02   2.65953918E-06
   4.12500016E-02   2.70645137E-06
   4.13249992E-02   2.75154548E-06
   4.14000005E-02   2.79471806E-06
   4.14750017E-02   2.83586496E-06
   4.15499993E-02   2.87488206E-06
   4.16250005E-02   2.91166475E-06
   4.17000018E-02   2.94610891E-06
   4.17749994E-02   2.97810971E-06
   4.18500006E-02   3.00756324E-06
   4.19249982E-02   3.03436514E-06
   4.19999994E-02   3.05841286E-06
   4.20750007E-02   3.07960295E-06
   4.21499982E-02   3.09783377E-06
   4.22249995E-02   3.11300391E-06
   4.23000008E-02   3.12501356E-06
   4.23749983E-02   3.13376381E-06
   4.24499996E-02   3.13915689E-06
   4.25250009E-02   3.14109730E-06
   4.25999984E-02   3.13948999E-06
   4.26749997E-02   3.13424266E-06
   4.27500010E-02   3.12526413E-06
   4.28249985E-02   3.11246640E-06
   4.28999998E-02   3.09576262E-06
   4.29750010E-02   3.07506889E-06
   4.30499986E-02   3.05030380E-06
   4.31249999E-02   3.02138892E-06
   4.32000011E-02   2.98824830E-06
   4.32749987E-02   2.95080918E-06
   4.33499999E-02   2.90900175E-06
   4.34250012E-02   2.86276031E-06
   4.34999987E-02   2.81202165E-06
   4.35750000E-02   2.75672710E-06
   4.36500013E-02   2.69682096E-06
   4.37249988E-02   2.63225206E-06
   4.38000001E-02   2.56297358E-06
   4.38750014E-02   2.48894230E-06
   4.39499989E-02   2.41012003E-06
   4.40250002E-02   2.32647267E-06
   4.41000015E-02   2.23797110E-06
   4.41749990E-02   2.14459124E-06
   4.42500003E-02   2.04631351E-06
   4.43250015E-02   1.94312406E-06
   4.43999991E-02   1.83501379E-06
   4.44750004E-02   1.72197963E-06
   4.45500016E-02   1.60402340E-06
   4.46249992E-02   1.48115282E-06
   4.47000004E-02   1.35338155E-06
   4.47750017E-02   1.22072890E-06
   4.48499992E-02   1.08322047E-06
   4.49250005E-02   9.40887730E-07
   4.50000018E-02   7.93768379E-07
   4.50749993E-02   6.41906695E-07
   4.51500006E-02   4.85353155E-07
   4.52249981E-02   3.24164688E-07
   4.52999994E-02   1.58404916E-07
   4.53750007E-02  -1.18559242E-08
   4.54499982E-02  -1.86540817E-07
   4.55249995E-02  -3.65565995E-07
   4.56000008E-02  -5.48840831E-07
   4.56749983E-02  -7.36267907E-07
   4.57499996E-02  -9.27742690E-07
   4.58250009E-02  -1.12315388E-06
   4.58999984E-02  -1.32238290E-06
   4.59749997E-02  -1.52530447E-06
   4.60500009E-02  -1.73178580E-06
   4.61249985E-02  -1.94168797E-06
   4.61999997E-02  -2.15486375E-06
   4.62750010E-02  -2.37116024E-06
   4.63499986E-02  -2.59041622E-06
   4.64249998E-02  -2.81246457E-06
   4.65000011E-02  -3.03713023E-06
   4.65749986E-02  -3.26423219E-06
   4.66499999E-02  -3.49358197E-06
   4.67250012E-02  -3.72498448E-06
   4.67999987E-02  -3.95823781E-06
   4.68750000E-02  -4.19313346E-06
   4.69500013E-02  -4.42945657E-06
   4.70249988E-02  -4.66698566E-06
   4.71000001E-02  -4.90549201E-06
   4.71750014E-02  -5.14474277E-06
   4.72499989E-02  -5.38449649E-06
   4.73250002E-02  -5.62450805E-06
   4.74000014E-02  -5.86452506E-06
   4.74749990E-02  -6.10428970E-06
   4.75500003E-02  -6.34353819E-06
   4.76250015E-02  -6.58200270E-06
   4.76999991E-02  -6.81940901E-06
   4.77750003E-02  -7.05547882E-06
   4.78500016E-02  -7.28992791E-06
   4.79249991E-02  -7.52246797E-06
   4.80000004E-02  -7.75280751E-06
   4.80750017E-02  -7.98064866E-06
   4.81499992E-02  -8.20569221E-06
   4.82250005E-02  -8.42763257E-06
   4.83000018E-02  -8.64616322E-06
   4.83749993E-02  -8.86097314E-06
   4.84500006E-02  -9.07174854E-06
   4.85250019E-02  -9.27817382E-06
   4.85999994E-02  -9.47993067E-06
   4.86750007E-02  -9.67669712E-06
   4.87499982E-02  -9.86815303E-06
   4.88249995E-02  -1.00539737E-05
   4.89000008E-02  -1.02338345E-05
   4.89749983E-02  -1.04074106E-05
   4.90499996E-02  -1.05743766E-05
   4.91250008E-02  -1.07344058E-05
   4.91999984E-02  -1.08871736E-05
   4.92749996E-02  -1.10323545E-05
   4.93500009E-02  -1.11696263E-05
   4.94249985E-02  -1.12986645E-05
   4.94999997E-02  -1.14191489E-05
   4.95750010E-02  -1.15307621E-05
   4.96499985E-02  -1.16331867E-05
   4.97249998E-02  -1.17261097E-05
   4.98000011E-02  -1.18092212E-05
   4.98749986E-02  -1.18822154E-05
   4.99499999E-02  -1.19447895E-05
   5.00250012E-02  -1.19966453E-05
   5.00999987E-02  -1.20374907E-05
   5.01750000E-02  -1.20670384E-05
   5.02500013E-02  -1.20850045E-05
   5.03249988E-02  -1.20911154E-05
   5.04000001E-02  -1.20851009E-05
   5.04750013E-02  -1.20666991E-05
   5.05499989E-02  -1.20356553E-05
   5.06250001E-02  -1.19917213E-05
   5.07000014E-02  -1.19346578E-05
   5.07749990E-02  -1.18642347E-05
   5.08500002E-02  -1.17802292E-05
   5.09250015E-02  -1.16824312E-05
   5.09999990E-02  -1.15706353E-05
   5.10750003E-02  -1.14446520E-05
   5.11500016E-02  -1.13042979E-05
   5.12249991E-02  -1.11494037E-05
   5.13000004E-02  -1.09798093E-05
   5.13750017E-02  -1.07953674E-05
   5.14499992E-02  -1.05959416E-05
   5.15250005E-02  -1.03814109E-05
   5.16000018E-02  -1.01516644E-05
   5.16749993E-02  -9.90660465E-06
   5.17500006E-02  -9.64614901E-06
   5.18250018E-02  -9.37022742E-06
   5.18999994E-02  -9.07878621E-06
   5.19750006E-02  -8.77178445E-06
   5.20499982E-02  -8.44919759E-06
   5.21249995E-02  -8.11101563E-06
   5.22000007E-02  -7.75724311E-06
   5.22749983E-02  -7.38790186E-06
   5.23499995E-02  -7.00303053E-06
   5.24250008E-02  -6.60268233E-06
   5.24999984E-02  -6.18692775E-06
   5.25749996E-02  -5.75585454E-06
   5.26500009E-02  -5.30956731E-06
   5.27249984E-02  -4.84818838E-06
   5.27999997E-02  -4.37185736E-06
   5.28750010E-02  -3.88073158E-06
   5.29499985E-02  -3.37498705E-06
   5.30249998E-02  -2.85481656E-06
   5.31000011E-02  -2.32043226E-06
   5.31749986E-02  -1.77206391E-06
   5.32499999E-02  -1.20996049E-06
   5.33250012E-02  -6.34389323E-07
   5.33999987E-02  -4.56360283E-08
   5.34750000E-02   5.55994461E-07
   5.35500012E-02   1.17017896E-06
   5.36249988E-02   1.79657502E-06
   5.37000000E-02   2.43482145E-06
   5.37750013E-02   3.08453900E-06
   5.38499989E-02   3.74532874E-06
   5.39250001E-02   4.41677275E-06
   5.40000014E-02   5.09843539E-06
   5.40749989E-02   5.78986192E-06
   5.41500002E-02   6.49057984E-06
   5.42250015E-02   7.20009712E-06
   5.42999990E-02   7.91790444E-06
   5.43750003E-02   8.64347385E-06
   5.44500016E-02   9.37626010E-06
   5.45249991E-02   1.01157002E-05
   5.46000004E-02   1.08612139E-05
   5.46750017E-02   1.16122019E-05
   5.47499992E-02   1.23680520E-05
   5.48250005E-02   1.31281331E-05
   5.49000017E-02   1.38917967E-05
   5.49749993E-02   1.46583798E-05
   5.50500005E-02   1.54272057E-05
   5.51250018E-02   1.61975786E-05
   5.51999994E-02   1.69687901E-05
   5.52750006E-02   1.77401162E-05
   5.53499982E-02   1.85108220E-05
   5.54249994E-02   1.92801581E-05
   5.55000007E-02   2.00473605E-05
   5.55749983E-02   2.08116526E-05
   5.56499995E-02   2.15722466E-05
   5.57250008E-02   2.23283459E-05
   5.57999983E-02   2.30791429E-05
   5.58749996E-02   2.38238135E-05
   5.59500009E-02   2.45615283E-05
   5.60249984E-02   2.52914524E-05
   5.60999997E-02   2.60127399E-05
   5.61750010E-02   2.67245341E-05
   5.62499985E-02   2.74259764E-05
   5.63249998E-02   2.81161974E-05
   5.64000010E-02   2.87943258E-05
   5.64749986E-02   2.94594811E-05
   5.65499999E-02   3.01107866E-05
   5.66250011E-02   3.07473565E-05
   5.66999987E-02   3.13683013E-05
   5.67749999E-02   3.19727369E-05
   5.68500012E-02   3.25597684E-05
   5.69249988E-02   3.31285082E-05
   5.70000000E-02   3.36780722E-05
   5.70750013E-02   3.42075655E-05
   5.71499988E-02   3.47161113E-05
   5.72250001E-02   3.52028219E-05
   5.73000014E-02   3.56668279E-05
   5.73749989E-02   3.61072598E-05
   5.74500002E-02   3.65232481E-05
   5.75250015E-02   3.69139379E-05
   5.75999990E-02   3.72784780E-05
   5.76750003E-02   3.76160278E-05
   5.77500015E-02   3.79257544E-05
   5.78249991E-02   3.82068429E-05
   5.79000004E-02   3.84584855E-05
   5.79750016E-02   3.86798893E-05
   5.80499992E-02   3.88702720E-05
   5.81250004E-02   3.90288660E-05
   5.82000017E-02   3.91549220E-05
   5.82749993E-02   3.92477050E-05
   5.83500005E-02   3.93065056E-05
   5.84250018E-02   3.93306218E-05
   5.84999993E-02   3.93193768E-05
   5.85750006E-02   3.92721195E-05
   5.86499982E-02   3.91882131E-05
   5.87249994E-02   3.90670393E-05
   5.88000007E-02   3.89080196E-05
   5.88749982E-02   3.87105829E-05
   5.89499995E-02   3.84741907E-05
   5.90250008E-02   3.81983300E-05
   5.90999983E-02   3.78825243E-05
   5.91749996E-02   3.75263080E-05
   5.92500009E-02   3.71292590E-05
   5.93249984E-02   3.66909735E-05
   5.93999997E-02   3.62110950E-05
   5.94750009E-02   3.56892815E-05
   5.95499985E-02   3.51252311E-05
   5.96249998E-02   3.45186781E-05
   5.97000010E-02   3.38693826E-05
   5.97749986E-02   3.31771553E-05
   5.98499998E-02   3.24418252E-05
   5.99250011E-02   3.16632650E-05
   5.99999987E-02   3.08413873E-05
   6.00749999E-02   2.99761414E-05
   6.01500012E-02   2.90675143E-05
   6.02249987E-02   2.81155317E-05
   6.03000000E-02   2.71202607E-05
   6.03750013E-02   2.60818069E-05
   6.04499988E-02   2.50003177E-05
   6.05250001E-02   2.38759876E-05
   6.06000014E-02   2.27090441E-05
   6.06749989E-02   2.14997654E-05
   6.07500002E-02   2.02484662E-05
   6.08250014E-02   1.89555121E-05
   6.08999990E-02   1.76213052E-05
   6.09750003E-02   1.62462984E-05
   6.10500015E-02   1.48309855E-05
   6.11249991E-02   1.33759058E-05
   6.12000003E-02   1.18816461E-05
   6.12750016E-02   1.03488364E-05
   6.13499992E-02   8.77815182E-06
   6.14250004E-02   7.17031526E-06
   6.15000017E-02   5.52609436E-06
   6.15749992E-02   3.84630266E-06
   6.16500005E-02   2.13180078E-06
   6.17250018E-02   3.83493926E-07
   6.17999993E-02  -1.39766689E-06
   6.18750006E-02  -3.21068478E-06
   6.19499981E-02  -5.05451635E-06
   6.20249994E-02  -6.92807316E-06
   6.21000007E-02  -8.83022221E-06
   6.21749982E-02  -1.07597853E-05
   6.22499995E-02  -1.27155372E-05
   6.23250008E-02  -1.46962147E-05
   6.23999983E-02  -1.67005055E-05
   6.24749996E-02  -1.87270580E-05
   6.25500008E-02  -2.07744706E-05
   6.26249984E-02  -2.28413119E-05
   6.27000034E-02  -2.49260956E-05
   6.27750009E-02  -2.70273013E-05
   6.28499985E-02  -2.91433644E-05
   6.29250035E-02  -3.12726879E-05
   6.30000010E-02  -3.34136312E-05
   6.30749986E-02  -3.55645170E-05
   6.31500036E-02  -3.77236283E-05
   6.32250011E-02  -3.98892189E-05
   6.32999986E-02  -4.20594988E-05
   6.33750036E-02  -4.42326527E-05
   6.34500012E-02  -4.64068253E-05
   6.35249987E-02  -4.85801393E-05
   6.36000037E-02  -5.07506666E-05
   6.36750013E-02  -5.29164681E-05
   6.37499988E-02  -5.50755758E-05
   6.38249964E-02  -5.72259887E-05
   6.39000013E-02  -5.93656769E-05
   6.39749989E-02  -6.14925957E-05
   6.40499964E-02  -6.36046680E-05
   6.41250014E-02  -6.56998163E-05
   6.41999990E-02  -6.77759235E-05