   0.00000000       0.00000000    
   7.50000036E-05   0.00000000    
   1.50000007E-04   0.00000000    
   2.24999996E-04   0.00000000    
   3.00000014E-04   6.89129134E-23
   3.75000003E-04   7.08892876E-22
   4.49999992E-04   3.93752673E-21
   5.24999981E-04   1.57421986E-20
   6.00000028E-04   5.08258446E-20
   6.75000018E-04   1.40857808E-19
   7.50000007E-04   3.47764798E-19
   8.24999996E-04   7.83937264E-19
   8.99999985E-04   1.64159173E-18
   9.74999974E-04   3.23389528E-18
   1.04999996E-03   6.05084645E-18
   1.12499995E-03   1.08332892E-17
   1.20000006E-03   1.86687948E-17
   1.27500005E-03   3.11135616E-17
   1.35000004E-03   5.03448260E-17
   1.42500002E-03   7.93484715E-17
   1.50000001E-03   1.22147114E-16
   1.57500000E-03   1.84074077E-16
   1.64999999E-03   2.72098588E-16
   1.72499998E-03   3.95208447E-16
   1.79999997E-03   5.64855462E-16
   1.87499996E-03   7.95471140E-16
   1.94999995E-03   1.10505570E-15
   2.02500005E-03   1.51585006E-15
   2.09999993E-03   2.05509463E-15
   2.17500003E-03   2.75587908E-15
   2.24999990E-03   3.65809262E-15
   2.32500001E-03   4.80947467E-15
   2.40000011E-03   6.26677284E-15
   2.47499999E-03   8.09701495E-15
   2.55000009E-03   1.03788938E-14
   2.62499996E-03   1.32042628E-14
   2.70000007E-03   1.66797559E-14
   2.77499994E-03   2.09285273E-14
   2.85000005E-03   2.60921012E-14
   2.92499992E-03   3.23323454E-14
   3.00000003E-03   3.98335505E-14
   3.07499990E-03   4.88045985E-14
   3.15000000E-03   5.94812760E-14
   3.22500011E-03   7.21286434E-14
   3.29999998E-03   8.70435112E-14
   3.37500009E-03   1.04556961E-13
   3.44999996E-03   1.25036930E-13
   3.52500007E-03   1.48890842E-13
   3.59999994E-03   1.76568246E-13
   3.67500004E-03   2.08563486E-13
   3.74999992E-03   2.45418350E-13
   3.82500002E-03   2.87724570E-13
   3.89999989E-03   3.36126526E-13
   3.97500023E-03   3.91323340E-13
   4.05000011E-03   4.54071351E-13
   4.12499998E-03   5.25186286E-13
   4.19999985E-03   6.05545020E-13
   4.27500019E-03   6.96087177E-13
   4.35000006E-03   7.97816349E-13
   4.42499993E-03   9.11801559E-13
   4.49999981E-03   1.03917732E-12
   4.57500014E-03   1.18114405E-12
   4.65000002E-03   1.33896757E-12
   4.72499989E-03   1.51397861E-12
   4.80000023E-03   1.70757137E-12
   4.87500010E-03   1.92120061E-12
   4.94999997E-03   2.15637968E-12
   5.02499985E-03   2.41467631E-12
   5.10000018E-03   2.69770708E-12
   5.17500006E-03   3.00713556E-12
   5.24999993E-03   3.34466135E-12
   5.32499980E-03   3.71201550E-12
   5.40000014E-03   4.11095203E-12
   5.47500001E-03   4.54323428E-12
   5.54999989E-03   5.01062950E-12
   5.62500022E-03   5.51489453E-12
   5.70000010E-03   6.05775976E-12
   5.77499997E-03   6.64091655E-12
   5.84999984E-03   7.26599813E-12
   5.92500018E-03   7.93455839E-12
   6.00000005E-03   8.64806490E-12
   6.07499992E-03   9.40786598E-12
   6.14999980E-03   1.02151620E-11
   6.22500014E-03   1.10709974E-11
   6.30000001E-03   1.19762169E-11
   6.37499988E-03   1.29314484E-11
   6.45000022E-03   1.39370633E-11
   6.52500009E-03   1.49931456E-11
   6.59999996E-03   1.60994620E-11
   6.67499984E-03   1.72554228E-11
   6.75000018E-03   1.84600408E-11
   6.82500005E-03   1.97118918E-11
   6.89999992E-03   2.10090643E-11
   6.97499979E-03   2.23491173E-11
   7.05000013E-03   2.37290465E-11
   7.12500000E-03   2.51452244E-11
   7.19999988E-03   2.65933438E-11
   7.27500021E-03   2.80683896E-11
   7.35000009E-03   2.95645418E-11
   7.42499996E-03   3.10751667E-11
   7.49999983E-03   3.25927028E-11
   7.57500017E-03   3.41086499E-11
   7.65000004E-03   3.56134879E-11
   7.72499992E-03   3.70966209E-11
   7.79999979E-03   3.85463259E-11
   7.87500013E-03   3.99496651E-11
   7.95000046E-03   4.12924001E-11
   8.02499987E-03   4.25589841E-11
   8.10000021E-03   4.37324517E-11
   8.17499962E-03   4.47943661E-11
   8.24999996E-03   4.57247677E-11
   8.32500029E-03   4.65020591E-11
   8.39999970E-03   4.71029708E-11
   8.47500004E-03   4.75025436E-11
   8.55000038E-03   4.76740036E-11
   8.62499978E-03   4.75886969E-11
   8.70000012E-03   4.72159603E-11
   8.77500046E-03   4.65233130E-11
   8.84999987E-03   4.54761367E-11
   8.92500021E-03   4.40376902E-11
   8.99999961E-03   4.21691432E-11
   9.07499995E-03   3.98294696E-11
   9.15000029E-03   3.69753533E-11
   9.22499970E-03   3.35612337E-11
   9.30000003E-03   2.95393501E-11
   9.37500037E-03   2.48594496E-11
   9.44999978E-03   1.94689733E-11
   9.52500012E-03   1.33129731E-11
   9.60000046E-03   6.33411379E-12
   9.67499986E-03  -1.52726594E-12
   9.75000020E-03  -1.03331996E-11
   9.82499961E-03  -2.01481245E-11
   9.89999995E-03  -3.10388000E-11
   9.97500028E-03  -4.30743739E-11
   1.00499997E-02  -5.63261868E-11
   1.01250000E-02  -7.08677422E-11
   1.02000004E-02  -8.67747540E-11
   1.02749998E-02  -1.04124959E-10
   1.03500001E-02  -1.22998098E-10
   1.04250005E-02  -1.43475828E-10
   1.04999999E-02  -1.65641473E-10
   1.05750002E-02  -1.89580060E-10
   1.06499996E-02  -2.15378076E-10
   1.07249999E-02  -2.43123438E-10
   1.08000003E-02  -2.72905032E-10
   1.08749997E-02  -3.04812814E-10
   1.09500000E-02  -3.38937517E-10
   1.10250004E-02  -3.75370457E-10
   1.10999998E-02  -4.14203172E-10
   1.11750001E-02  -4.55527116E-10
   1.12500004E-02  -4.99433606E-10
   1.13249999E-02  -5.46013512E-10
   1.14000002E-02  -5.95356764E-10
   1.14749996E-02  -6.47552123E-10
   1.15499999E-02  -7.02686964E-10
   1.16250003E-02  -7.60846552E-10
   1.16999997E-02  -8.22113877E-10
   1.17750000E-02  -8.86569373E-10
   1.18500004E-02  -9.54290091E-10
   1.19249998E-02  -1.02534958E-09
   1.20000001E-02  -1.09981768E-09
   1.20750004E-02  -1.17775922E-09
   1.21499998E-02  -1.25923416E-09
   1.22250002E-02  -1.34429701E-09
   1.22999996E-02  -1.43299572E-09
   1.23749999E-02  -1.52537183E-09
   1.24500003E-02  -1.62145963E-09
   1.25249997E-02  -1.72128523E-09
   1.26000000E-02  -1.82486670E-09
   1.26750004E-02  -1.93221217E-09
   1.27499998E-02  -2.04332040E-09
   1.28250001E-02  -2.15818008E-09
   1.29000004E-02  -2.27676766E-09
   1.29749998E-02  -2.39904874E-09
   1.30500002E-02  -2.52497512E-09
   1.31249996E-02  -2.65448663E-09
   1.31999999E-02  -2.78750800E-09
   1.32750003E-02  -2.92394953E-09
   1.33499997E-02  -3.06370551E-09
   1.34250000E-02  -3.20665428E-09
   1.35000004E-02  -3.35265682E-09
   1.35749998E-02  -3.50155616E-09
   1.36500001E-02  -3.65317687E-09
   1.37250004E-02  -3.80732335E-09
   1.37999998E-02  -3.96378042E-09
   1.38750002E-02  -4.12231138E-09
   1.39499996E-02  -4.28265823E-09
   1.40249999E-02  -4.44453985E-09
   1.41000003E-02  -4.60765159E-09
   1.41749997E-02  -4.77166529E-09
   1.42500000E-02  -4.93622743E-09
   1.43250003E-02  -5.10095877E-09
   1.43999998E-02  -5.26545474E-09
   1.44750001E-02  -5.42928280E-09
   1.45500004E-02  -5.59198332E-09
   1.46249998E-02  -5.75306736E-09
   1.47000002E-02  -5.91201887E-09
   1.47749996E-02  -6.06829120E-09
   1.48499999E-02  -6.22130791E-09
   1.49250003E-02  -6.37046194E-09
   1.49999997E-02  -6.51511600E-09
   1.50750000E-02  -6.65460043E-09
   1.51500003E-02  -6.78821488E-09
   1.52249997E-02  -6.91522573E-09
   1.53000001E-02  -7.03486736E-09
   1.53750004E-02  -7.14634352E-09
   1.54499998E-02  -7.24882332E-09
   1.55250002E-02  -7.34144345E-09
   1.55999996E-02  -7.42330819E-09
   1.56750008E-02  -7.49348850E-09
   1.57500003E-02  -7.55102469E-09
   1.58249997E-02  -7.59492202E-09
   1.59000009E-02  -7.62415553E-09
   1.59750003E-02  -7.63766739E-09
   1.60499997E-02  -7.63437047E-09
   1.61249992E-02  -7.61314300E-09
   1.62000004E-02  -7.57283836E-09
   1.62749998E-02  -7.51227791E-09
   1.63499992E-02  -7.43025286E-09
   1.64250005E-02  -7.32552863E-09
   1.64999999E-02  -7.19684534E-09
   1.65749993E-02  -7.04291736E-09
   1.66500006E-02  -6.86243284E-09
   1.67250000E-02  -6.65405908E-09
   1.67999994E-02  -6.41644160E-09
   1.68750007E-02  -6.14820728E-09
   1.69500001E-02  -5.84796434E-09
   1.70249995E-02  -5.51430501E-09
   1.71000008E-02  -5.14580645E-09
   1.71750002E-02  -4.74103556E-09
   1.72499996E-02  -4.29855040E-09
   1.73250008E-02  -3.81690013E-09
   1.74000002E-02  -3.29462901E-09
   1.74749997E-02  -2.73028089E-09
   1.75500009E-02  -2.12239959E-09
   1.76250003E-02  -1.46953105E-09
   1.76999997E-02  -7.70231545E-10
   1.77749991E-02  -2.30632961E-11
   1.78500004E-02   7.73395459E-10
   1.79249998E-02   1.62054981E-09
   1.79999992E-02   2.51978682E-09
   1.80750005E-02   3.47246898E-09
   1.81499999E-02   4.47992976E-09
   1.82249993E-02   5.54347190E-09
   1.83000006E-02   6.66436106E-09
   1.83750000E-02   7.84382248E-09
   1.84499994E-02   9.08303921E-09
   1.85250007E-02   1.03831432E-08
   1.86000001E-02   1.17452119E-08
   1.86749995E-02   1.31702649E-08
   1.87500007E-02   1.46592569E-08
   1.88250002E-02   1.62130807E-08
   1.88999996E-02   1.78325514E-08
   1.89750008E-02   1.95184011E-08
   1.90500002E-02   2.12712887E-08
   1.91249996E-02   2.30917792E-08
   1.92000009E-02   2.49803396E-08
   1.92750003E-02   2.69373430E-08
   1.93499997E-02   2.89630542E-08
   1.94249991E-02   3.10576240E-08
   1.95000004E-02   3.32210917E-08
   1.95749998E-02   3.54533753E-08
   1.96499992E-02   3.77542655E-08
   1.97250005E-02   4.01234104E-08
   1.97999999E-02   4.25603268E-08
   1.98749993E-02   4.50643824E-08
   1.99500006E-02   4.76348028E-08
   2.00250000E-02   5.02706428E-08
   2.00999994E-02   5.29708046E-08
   2.01750007E-02   5.57340201E-08
   2.02500001E-02   5.85588502E-08
   2.03249995E-02   6.14436715E-08
   2.04000007E-02   6.43866827E-08
   2.04750001E-02   6.73858835E-08
   2.05499995E-02   7.04390928E-08
   2.06250008E-02   7.35439087E-08
   2.07000002E-02   7.66977450E-08
   2.07749996E-02   7.98977950E-08
   2.08500009E-02   8.31410318E-08
   2.09250003E-02   8.64242224E-08
   2.09999997E-02   8.97439065E-08
   2.10749991E-02   9.30963822E-08
   2.11500004E-02   9.64777342E-08
   2.12249998E-02   9.98837990E-08
   2.12999992E-02   1.03310185E-07
   2.13750005E-02   1.06752253E-07
   2.14499999E-02   1.10205107E-07
   2.15249993E-02   1.13663631E-07
   2.16000006E-02   1.17122433E-07
   2.16750000E-02   1.20575876E-07
   2.17499994E-02   1.24018072E-07
   2.18250006E-02   1.27442902E-07
   2.19000001E-02   1.30843944E-07
   2.19749995E-02   1.34214559E-07
   2.20500007E-02   1.37547829E-07
   2.21250001E-02   1.40836619E-07
   2.21999995E-02   1.44073482E-07
   2.22750008E-02   1.47250745E-07
   2.23500002E-02   1.50360506E-07
   2.24249996E-02   1.53394581E-07
   2.25000009E-02   1.56344555E-07
   2.25750003E-02   1.59201775E-07
   2.26499997E-02   1.61957331E-07
   2.27249991E-02   1.64602113E-07
   2.28000004E-02   1.67126714E-07
   2.28749998E-02   1.69521584E-07
   2.29499992E-02   1.71776890E-07
   2.30250005E-02   1.73882626E-07
   2.30999999E-02   1.75828575E-07
   2.31749993E-02   1.77604321E-07
   2.32500006E-02   1.79199262E-07
   2.33250000E-02   1.80602626E-07
   2.33999994E-02   1.81803443E-07
   2.34750006E-02   1.82790615E-07
   2.35500000E-02   1.83552885E-07
   2.36249994E-02   1.84078871E-07
   2.37000007E-02   1.84357049E-07
   2.37750001E-02   1.84375821E-07
   2.38499995E-02   1.84123465E-07
   2.39250008E-02   1.83588185E-07
   2.40000002E-02   1.82758114E-07
   2.40749996E-02   1.81621360E-07
   2.41500009E-02   1.80165983E-07
   2.42250003E-02   1.78380034E-07
   2.42999997E-02   1.76251561E-07
   2.43749991E-02   1.73768655E-07
   2.44500004E-02   1.70919407E-07
   2.45249998E-02   1.67691994E-07
   2.45999992E-02   1.64074692E-07
   2.46750005E-02   1.60055833E-07
   2.47499999E-02   1.55623951E-07
   2.48249993E-02   1.50767690E-07
   2.49000005E-02   1.45475823E-07
   2.49749999E-02   1.39737367E-07
   2.50499994E-02   1.33541519E-07
   2.51250006E-02   1.26877723E-07
   2.52000000E-02   1.19735759E-07
   2.52749994E-02   1.12105681E-07
   2.53500007E-02   1.03977854E-07
   2.54250001E-02   9.53429762E-08
   2.54999995E-02   8.61920881E-08
   2.55750008E-02   7.65166916E-08
   2.56500002E-02   6.63087363E-08
   2.57249996E-02   5.55605837E-08
   2.58000009E-02   4.42651213E-08
   2.58750003E-02   3.24157341E-08
   2.59499997E-02   2.00063610E-08
   2.60249991E-02   7.03154823E-09
   2.61000004E-02  -6.51357901E-09
   2.61749998E-02  -2.06332764E-08
   2.62499992E-02  -3.53311265E-08
   2.63250005E-02  -5.06099802E-08
   2.63999999E-02  -6.64719835E-08
   2.64749993E-02  -8.29185041E-08
   2.65500005E-02  -9.99501353E-08
   2.66249999E-02  -1.17566671E-07
   2.66999993E-02  -1.35767039E-07
   2.67750006E-02  -1.54549284E-07
   2.68500000E-02  -1.73910536E-07
   2.69249994E-02  -1.93847029E-07
   2.70000007E-02  -2.14353989E-07
   2.70750001E-02  -2.35425716E-07
   2.71499995E-02  -2.57055433E-07
   2.72250008E-02  -2.79235337E-07
   2.73000002E-02  -3.01956561E-07
   2.73749996E-02  -3.25209101E-07
   2.74500009E-02  -3.48981928E-07
   2.75250003E-02  -3.73262679E-07
   2.75999997E-02  -3.98038054E-07
   2.76749991E-02  -4.23293415E-07
   2.77500004E-02  -4.49013015E-07
   2.78249998E-02  -4.75179775E-07
   2.78999992E-02  -5.01775389E-07
   2.79750004E-02  -5.28780390E-07
   2.80499998E-02  -5.56173802E-07
   2.81249993E-02  -5.83933513E-07
   2.82000005E-02  -6.12036160E-07
   2.82749999E-02  -6.40456790E-07
   2.83499993E-02  -6.69169481E-07
   2.84250006E-02  -6.98146664E-07
   2.85000000E-02  -7.27359520E-07
   2.85749994E-02  -7.56777865E-07
   2.86500007E-02  -7.86370208E-07
   2.87250001E-02  -8.16103523E-07
   2.87999995E-02  -8.45943589E-07
   2.88750008E-02  -8.75854766E-07
   2.89500002E-02  -9.05800107E-07
   2.90249996E-02  -9.35741127E-07
   2.91000009E-02  -9.65638264E-07
   2.91750003E-02  -9.95450250E-07
   2.92499997E-02  -1.02513491E-06
   2.93249991E-02  -1.05464835E-06
   2.94000003E-02  -1.08394568E-06
   2.94749998E-02  -1.11298061E-06
   2.95499992E-02  -1.14170564E-06
   2.96250004E-02  -1.17007187E-06
   2.96999998E-02  -1.19802951E-06
   2.97749992E-02  -1.22552728E-06
   2.98500005E-02  -1.25251290E-06
   2.99249999E-02  -1.27893293E-06
   2.99999993E-02  -1.30473279E-06
   3.00750006E-02  -1.32985701E-06
   3.01500000E-02  -1.35424898E-06
   3.02249994E-02  -1.37785116E-06
   3.03000007E-02  -1.40060524E-06
   3.03750001E-02  -1.42245199E-06
   3.04499995E-02  -1.44333103E-06
   3.05250008E-02  -1.46318189E-06
   3.06000002E-02  -1.48194283E-06
   3.06749996E-02  -1.49955167E-06
   3.07500008E-02  -1.51594588E-06
   3.08250003E-02  -1.53106214E-06
   3.08999997E-02  -1.54483655E-06
   3.09749991E-02  -1.55720534E-06
   3.10500003E-02  -1.56810404E-06
   3.11249997E-02  -1.57746797E-06
   3.11999992E-02  -1.58523255E-06
   3.12750004E-02  -1.59133322E-06
   3.13500017E-02  -1.59570493E-06
   3.14249992E-02  -1.59828323E-06
   3.15000005E-02  -1.59900378E-06
   3.15750018E-02  -1.59780245E-06
   3.16499993E-02  -1.59461536E-06
   3.17250006E-02  -1.58937951E-06
   3.18000019E-02  -1.58203204E-06
   3.18749994E-02  -1.57251088E-06
   3.19500007E-02  -1.56075498E-06
   3.20249982E-02  -1.54670408E-06
   3.20999995E-02  -1.53029885E-06
   3.21750008E-02  -1.51148095E-06
   3.22499983E-02  -1.49019343E-06
   3.23249996E-02  -1.46638081E-06
   3.24000008E-02  -1.43998841E-06
   3.24749984E-02  -1.41096370E-06
   3.25499997E-02  -1.37925554E-06
   3.26250009E-02  -1.34481479E-06
   3.26999985E-02  -1.30759372E-06
   3.27749997E-02  -1.26754719E-06
   3.28500010E-02  -1.22463200E-06
   3.29249986E-02  -1.17880688E-06
   3.29999998E-02  -1.13003352E-06
   3.30750011E-02  -1.07827543E-06
   3.31499986E-02  -1.02349918E-06
   3.32249999E-02  -9.65673621E-07
   3.33000012E-02  -9.04770900E-07
   3.33749987E-02  -8.40766120E-07
   3.34500000E-02  -7.73637169E-07
   3.35250013E-02  -7.03365231E-07
   3.35999988E-02  -6.29934959E-07
   3.36750001E-02  -5.53334189E-07
   3.37500013E-02  -4.73554451E-07
   3.38249989E-02  -3.90590799E-07
   3.39000002E-02  -3.04442068E-07
   3.39750014E-02  -2.15111172E-07
   3.40499990E-02  -1.22604931E-07
   3.41250002E-02  -2.69342149E-08
   3.42000015E-02   7.18859852E-08
   3.42749991E-02   1.73836654E-07
   3.43500003E-02   2.78893992E-07
   3.44250016E-02   3.87029587E-07
   3.44999991E-02   4.98210966E-07
   3.45750004E-02   6.12400584E-07
   3.46500017E-02   7.29556007E-07
   3.47249992E-02   8.49630680E-07
   3.48000005E-02   9.72572479E-07
   3.48750018E-02   1.09832490E-06
   3.49499993E-02   1.22682559E-06
   3.50250006E-02   1.35800781E-06
   3.51000018E-02   1.49179959E-06
   3.51749994E-02   1.62812353E-06
   3.52500007E-02   1.76689673E-06
   3.53249982E-02   1.90803144E-06
   3.53999995E-02   2.05143442E-06
   3.54750007E-02   2.19700701E-06
   3.55499983E-02   2.34464505E-06
   3.56249996E-02   2.49423920E-06
   3.57000008E-02   2.64567439E-06
   3.57749984E-02   2.79883056E-06
   3.58499996E-02   2.95358154E-06
   3.59250009E-02   3.10979635E-06
   3.59999985E-02   3.26733834E-06
   3.60749997E-02   3.42606586E-06
   3.61500010E-02   3.58583088E-06
   3.62249985E-02   3.74648107E-06
   3.62999998E-02   3.90785817E-06
   3.63750011E-02   4.06979871E-06
   3.64499986E-02   4.23213442E-06
   3.65249999E-02   4.39469159E-06
   3.66000012E-02   4.55729196E-06
   3.66749987E-02   4.71975090E-06
   3.67500000E-02   4.88188107E-06
   3.68250012E-02   5.04348873E-06
   3.68999988E-02   5.20437561E-06
   3.69750001E-02   5.36433890E-06
   3.70500013E-02   5.52317260E-06
   3.71249989E-02   5.68066480E-06
   3.72000001E-02   5.83660039E-06
   3.72750014E-02   5.99075975E-06
   3.73499990E-02   6.14291912E-06
   3.74250002E-02   6.29285205E-06
   3.75000015E-02   6.44032752E-06
   3.75749990E-02   6.58511181E-06
   3.76500003E-02   6.72696706E-06
   3.77250016E-02   6.86565454E-06
   3.77999991E-02   7.00093096E-06
   3.78750004E-02   7.13255076E-06
   3.79500017E-02   7.26026656E-06
   3.80249992E-02   7.38382869E-06
   3.81000005E-02   7.50298477E-06
   3.81750017E-02   7.61748242E-06
   3.82499993E-02   7.72706699E-06
   3.83250006E-02   7.83148334E-06
   3.84000018E-02   7.93047366E-06
   3.84749994E-02   8.02378236E-06
   3.85500006E-02   8.11115206E-06
   3.86249982E-02   8.19232446E-06
   3.86999995E-02   8.26704490E-06
   3.87750007E-02   8.33505601E-06
   3.88499983E-02   8.39610220E-06
   3.89249995E-02   8.44992883E-06
   3.90000008E-02   8.49628577E-06
   3.90749983E-02   8.53492020E-06
   3.91499996E-02   8.56558563E-06
   3.92250009E-02   8.58803560E-06
   3.92999984E-02   8.60202726E-06
   3.93749997E-02   8.60732234E-06
   3.94500010E-02   8.60368436E-06
   3.95249985E-02   8.59088050E-06
   3.95999998E-02   8.56868428E-06
   3.96750011E-02   8.53687288E-06
   3.97499986E-02   8.49522894E-06
   3.98249999E-02   8.44353963E-06
   3.99000011E-02   8.38159940E-06
   3.99749987E-02   8.30920726E-06
   4.00500000E-02   8.22616767E-06
   4.01250012E-02   8.13229690E-06
   4.01999988E-02   8.02741306E-06
   4.02750000E-02   7.91134516E-06
   4.03500013E-02   7.78392860E-06
   4.04249988E-02   7.64500601E-06
   4.05000001E-02   7.49443370E-06
   4.05750014E-02   7.33207298E-06
   4.06499989E-02   7.15779515E-06
   4.07250002E-02   6.97148062E-06
   4.08000015E-02   6.77302342E-06
   4.08749990E-02   6.56232532E-06
   4.09500003E-02   6.33929676E-06
   4.10250016E-02   6.10386405E-06
   4.10999991E-02   5.85596308E-06
   4.11750004E-02   5.59554110E-06
   4.12500016E-02   5.32255808E-06
   4.13249992E-02   5.03698629E-06
   4.14000005E-02   4.73881209E-06
   4.14750017E-02   4.42803275E-06
   4.15499993E-02   4.10465918E-06
   4.16250005E-02   3.76871822E-06
   4.17000018E-02   3.42024896E-06
   4.17749994E-02   3.05930553E-06
   4.18500006E-02   2.68595568E-06
   4.19249982E-02   2.30028149E-06
   4.19999994E-02   1.90238188E-06
   4.20750007E-02   1.49237042E-06
   4.21499982E-02   1.07037511E-06
   4.22249995E-02   6.36540108E-07
   4.23000008E-02   1.91025222E-07
   4.23749983E-02  -2.65994487E-07
   4.24499996E-02  -7.34328069E-07
   4.25250009E-02  -1.21376638E-06
   4.25999984E-02  -1.70408464E-06
   4.26749997E-02  -2.20504194E-06
   4.27500010E-02  -2.71638032E-06
   4.28249985E-02  -3.23782774E-06
   4.28999998E-02  -3.76909384E-06
   4.29750010E-02  -4.30987120E-06
   4.30499986E-02  -4.85983492E-06
   4.31249999E-02  -5.41864438E-06
   4.32000011E-02  -5.98594215E-06
   4.32749987E-02  -6.56135489E-06
   4.33499999E-02  -7.14449106E-06
   4.34250012E-02  -7.73494230E-06
   4.34999987E-02  -8.33228842E-06
   4.35750000E-02  -8.93608740E-06
   4.36500013E-02  -9.54588268E-06
   4.37249988E-02  -1.01612031E-05
   4.38000001E-02  -1.07815604E-05
   4.38750014E-02  -1.14064505E-05
   4.39499989E-02  -1.20353534E-05
   4.40250002E-02  -1.26677332E-05
   4.41000015E-02  -1.33030417E-05
   4.41749990E-02  -1.39407148E-05
   4.42500003E-02  -1.45801750E-05
   4.43250015E-02  -1.52208268E-05
   4.43999991E-02  -1.58620624E-05
   4.44750004E-02  -1.65032652E-05
   4.45500016E-02  -1.71437987E-05
   4.46249992E-02  -1.77830188E-05
   4.47000004E-02  -1.84202672E-05
   4.47750017E-02  -1.90548708E-05
   4.48499992E-02  -1.96861547E-05
   4.49250005E-02  -2.03134205E-05
   4.50000018E-02  -2.09359678E-05
   4.50749993E-02  -2.15530854E-05
   4.51500006E-02  -2.21640512E-05
   4.52249981E-02  -2.27681339E-05
   4.52999994E-02  -2.33645969E-05
   4.53750007E-02  -2.39526908E-05
   4.54499982E-02  -2.45316660E-05
   4.55249995E-02  -2.51007605E-05
   4.56000008E-02  -2.56592120E-05
   4.56749983E-02  -2.62062476E-05
   4.57499996E-02  -2.67410960E-05
   4.58250009E-02  -2.72629750E-05
   4.58999984E-02  -2.77711079E-05
   4.59749997E-02  -2.82647106E-05
   4.60500009E-02  -2.87429957E-05
   4.61249985E-02  -2.92051827E-05
   4.61999997E-02  -2.96504877E-05
   4.62750010E-02  -3.00781212E-05
   4.63499986E-02  -3.04873065E-05
   4.64249998E-02  -3.08772651E-05
   4.65000011E-02  -3.12472148E-05
   4.65749986E-02  -3.15963916E-05
   4.66499999E-02  -3.19240207E-05
   4.67250012E-02  -3.22293454E-05
   4.67999987E-02  -3.25116089E-05
   4.68750000E-02  -3.27700691E-05
   4.69500013E-02  -3.30039838E-05
   4.70249988E-02  -3.32126256E-05
   4.71000001E-02  -3.33952812E-05
   4.71750014E-02  -3.35512414E-05
   4.72499989E-02  -3.36798075E-05
   4.73250002E-02  -3.37802994E-05
   4.74000014E-02  -3.38520476E-05
   4.74749990E-02  -3.38944046E-05
   4.75500003E-02  -3.39067301E-05
   4.76250015E-02  -3.38884020E-05
   4.76999991E-02  -3.38388199E-05
   4.77750003E-02  -3.37573947E-05
   4.78500016E-02  -3.36435623E-05
   4.79249991E-02  -3.34967772E-05
   4.80000004E-02  -3.33165153E-05
   4.80750017E-02  -3.31022711E-05
   4.81499992E-02  -3.28535680E-05
   4.82250005E-02  -3.25699548E-05
   4.83000018E-02  -3.22509877E-05
   4.83749993E-02  -3.18962666E-05
   4.84500006E-02  -3.15054131E-05
   4.85250019E-02  -3.10780670E-05
   4.85999994E-02  -3.06139082E-05
   4.86750007E-02  -3.01126365E-05
   4.87499982E-02  -2.95739828E-05
   4.88249995E-02  -2.89977088E-05
   4.89000008E-02  -2.83836089E-05
   4.89749983E-02  -2.77315085E-05
   4.90499996E-02  -2.70412602E-05
   4.91250008E-02  -2.63127549E-05
   4.91999984E-02  -2.55459108E-05
   4.92749996E-02  -2.47406861E-05
   4.93500009E-02  -2.38970697E-05
   4.94249985E-02  -2.30150872E-05
   4.94999997E-02  -2.20948023E-05
   4.95750010E-02  -2.11363094E-05
   4.96499985E-02  -2.01397470E-05
   4.97249998E-02  -1.91052804E-05
   4.98000011E-02  -1.80331190E-05
   4.98749986E-02  -1.69235136E-05
   4.99499999E-02  -1.57767481E-05
   5.00250012E-02  -1.45931499E-05
   5.00999987E-02  -1.33730746E-05
   5.01750000E-02  -1.21169269E-05
   5.02500013E-02  -1.08251515E-05
   5.03249988E-02  -9.49822879E-06
   5.04000001E-02  -8.13667702E-06
   5.04750013E-02  -6.74105922E-06
   5.05499989E-02  -5.31197702E-06
   5.06250001E-02  -3.85006979E-06
   5.07000014E-02  -2.35602488E-06
   5.07749990E-02  -8.30564261E-07
   5.08500002E-02   7.25553946E-07
   5.09250015E-02   2.31152626E-06
   5.09999990E-02   3.92651418E-06
   5.10750003E-02   5.56963414E-06
   5.11500016E-02   7.23996300E-06
   5.12249991E-02   8.93654124E-06
   5.13000004E-02   1.06583675E-05
   5.13750017E-02   1.24044027E-05
   5.14499992E-02   1.41735654E-05
   5.15250005E-02   1.59647461E-05
   5.16000018E-02   1.77767906E-05
   5.16749993E-02   1.96085075E-05
   5.17500006E-02   2.14586744E-05
   5.18250018E-02   2.33260289E-05
   5.18999994E-02   2.52092705E-05
   5.19750006E-02   2.71070639E-05
   5.20499982E-02   2.90180542E-05
   5.21249995E-02   3.09408315E-05
   5.22000007E-02   3.28739698E-05
   5.22749983E-02   3.48160065E-05
   5.23499995E-02   3.67654429E-05
   5.24250008E-02   3.87207547E-05
   5.24999984E-02   4.06803883E-05
   5.25749996E-02   4.26427614E-05
   5.26500009E-02   4.46062659E-05
   5.27249984E-02   4.65692683E-05
   5.27999997E-02   4.85301098E-05
   5.28750010E-02   5.04871023E-05
   5.29499985E-02   5.24385396E-05
   5.30249998E-02   5.43826936E-05
   5.31000011E-02   5.63178182E-05
   5.31749986E-02   5.82421417E-05
   5.32499999E-02   6.01538777E-05
   5.33250012E-02   6.20512219E-05
   5.33999987E-02   6.39323625E-05
   5.34750000E-02   6.57954661E-05
   5.35500012E-02   6.76386771E-05
   5.36249988E-02   6.94601476E-05
   5.37000000E-02   7.12580149E-05
   5.37750013E-02   7.30304018E-05
   5.38499989E-02   7.47754239E-05
   5.39250001E-02   7.64912038E-05
   5.40000014E-02   7.81758499E-05
   5.40749989E-02   7.98274632E-05
   5.41500002E-02   8.14441592E-05
   5.42250015E-02   8.30240388E-05
   5.42999990E-02   8.45652103E-05
   5.43750003E-02   8.60657965E-05
   5.44500016E-02   8.75239130E-05
   5.45249991E-02   8.89376970E-05
   5.46000004E-02   9.03052714E-05
   5.46750017E-02   9.16247955E-05
   5.47499992E-02   9.28944282E-05
   5.48250005E-02   9.41123435E-05
   5.49000017E-02   9.52767223E-05
   5.49749993E-02   9.63857819E-05
   5.50500005E-02   9.74377544E-05
   5.51250018E-02   9.84308863E-05
   5.51999994E-02   9.93634385E-05
   5.52750006E-02   1.00233709E-04
   5.53499982E-02   1.01040016E-04
   5.54249994E-02   1.01780715E-04
   5.55000007E-02   1.02454193E-04
   5.55749983E-02   1.03058839E-04
   5.56499995E-02   1.03593105E-04
   5.57250008E-02   1.04055463E-04
   5.57999983E-02   1.04444436E-04
   5.58749996E-02   1.04758576E-04
   5.59500009E-02   1.04996456E-04
   5.60249984E-02   1.05156716E-04
   5.60999997E-02   1.05238032E-04
   5.61750010E-02   1.05239124E-04
   5.62499985E-02   1.05158739E-04
   5.63249998E-02   1.04995692E-04
   5.64000010E-02   1.04748855E-04
   5.64749986E-02   1.04417122E-04
   5.65499999E-02   1.03999468E-04
   5.66250011E-02   1.03494902E-04
   5.66999987E-02   1.02902486E-04
   5.67749999E-02   1.02221362E-04
   5.68500012E-02   1.01450700E-04
   5.69249988E-02   1.00589736E-04
   5.70000000E-02   9.96377785E-05
   5.70750013E-02   9.85941952E-05
   5.71499988E-02   9.74583891E-05
   5.72250001E-02   9.62298654E-05
   5.73000014E-02   9.49081805E-05
   5.73749989E-02   9.34929340E-05
   5.74500002E-02   9.19838203E-05
   5.75250015E-02   9.03805849E-05
   5.75999990E-02   8.86830530E-05
   5.76750003E-02   8.68911156E-05
   5.77500015E-02   8.50047363E-05
   5.78249991E-02   8.30239587E-05
   5.79000004E-02   8.09488702E-05
   5.79750016E-02   7.87796525E-05
   5.80499992E-02   7.65165678E-05
   5.81250004E-02   7.41599360E-05
   5.82000017E-02   7.17101575E-05
   5.82749993E-02   6.91677124E-05
   5.83500005E-02   6.65331463E-05
   5.84250018E-02   6.38070705E-05
   5.84999993E-02   6.09902090E-05
   5.85750006E-02   5.80833512E-05
   5.86499982E-02   5.50873374E-05
   5.87249994E-02   5.20031244E-05
   5.88000007E-02   4.88317237E-05
   5.88749982E-02   4.55742229E-05
   5.89499995E-02   4.22317935E-05
   5.90250008E-02   3.88056760E-05
   5.90999983E-02   3.52972056E-05
   5.91749996E-02   3.17077938E-05
   5.92500009E-02   2.80389086E-05
   5.93249984E-02   2.42921160E-05
   5.93999997E-02   2.04690477E-05
   5.94750009E-02   1.65714173E-05
   5.95499985E-02   1.26010036E-05
   5.96249998E-02   8.55968665E-06
   5.97000010E-02   4.44940315E-06
   5.97749986E-02   2.72162595E-07
   5.98499998E-02  -3.96994074E-06
   5.99250011E-02  -8.27473650E-06
   5.99999987E-02  -1.26399973E-05
   6.00749999E-02  -1.70634339E-05
   6.01500012E-02  -2.15426535E-05
   6.02249987E-02  -2.60752022E-05
   6.03000000E-02  -3.06585789E-05
   6.03750013E-02  -3.52901916E-05
   6.04499988E-02  -3.99673954E-05
   6.05250001E-02  -4.46874656E-05
   6.06000014E-02  -4.94476262E-05
   6.06749989E-02  -5.42450252E-05
   6.07500002E-02  -5.90767559E-05
   6.08250014E-02  -6.39398568E-05
   6.08999990E-02  -6.88313157E-05
   6.09750003E-02  -7.37480368E-05
   6.10500015E-02  -7.86868841E-05
   6.11249991E-02  -8.36446634E-05
   6.12000003E-02  -8.86181151E-05
   6.12750016E-02  -9.36039432E-05
   6.13499992E-02  -9.85988081E-05
   6.14250004E-02  -1.03599312E-04
   6.15000017E-02  -1.08602013E-04
   6.15749992E-02  -1.13603426E-04
   6.16500005E-02  -1.18600015E-04
   6.17250018E-02  -1.23588223E-04
   6.17999993E-02  -1.28564439E-04
   6.18750006E-02  -1.33525027E-04
   6.19499981E-02  -1.38466290E-04
   6.20249994E-02  -1.43384546E-04
   6.21000007E-02  -1.48276056E-04
   6.21749982E-02  -1.53137036E-04
   6.22499995E-02  -1.57963703E-04
   6.23250008E-02  -1.62752258E-04
   6.23999983E-02  -1.67498860E-04
   6.24749996E-02  -1.72199638E-04
   6.25500008E-02  -1.76850735E-04
   6.26249984E-02  -1.81448282E-04
   6.27000034E-02  -1.85988378E-04
   6.27750009E-02  -1.90467123E-04
   6.28499985E-02  -1.94880617E-04
   6.29250035E-02  -1.99224931E-04
   6.30000010E-02  -2.03496165E-04
   6.30749986E-02  -2.07690391E-04
   6.31500036E-02  -2.11803737E-04
   6.32250011E-02  -2.15832275E-04
   6.32999986E-02  -2.19772119E-04
   6.33750036E-02  -2.23619412E-04
   6.34500012E-02  -2.27370285E-04
   6.35249987E-02  -2.31020866E-04
   6.36000037E-02  -2.34567371E-04
   6.36750013E-02  -2.38005960E-04
   6.37499988E-02  -2.41332891E-04
   6.38249964E-02  -2.44544382E-04
   6.39000013E-02  -2.47636752E-04
   6.39749989E-02  -2.50606303E-04
   6.40499964E-02  -2.53449398E-04
   6.41250014E-02  -2.56162399E-04
   6.41999990E-02  -2.58741784E-04