   0.00000000       0.00000000    
   7.50000036E-05   0.00000000    
   1.50000007E-04   0.00000000    
   2.24999996E-04   0.00000000    
   3.00000014E-04   1.26432571E-24
   3.75000003E-04   1.30281680E-23
   4.49999992E-04   7.25066797E-23
   5.24999981E-04   2.90487010E-22
   6.00000028E-04   9.39966467E-22
   6.75000018E-04   2.61097379E-21
   7.50000007E-04   6.46103991E-21
   8.24999996E-04   1.45981206E-20
   8.99999985E-04   3.06407861E-20
   9.74999974E-04   6.05086237E-20
   1.04999996E-03   1.13504341E-19
   1.12499995E-03   2.03759943E-19
   1.20000006E-03   3.52124764E-19
   1.27500005E-03   5.88593651E-19
   1.35000004E-03   9.55369102E-19
   1.42500002E-03   1.51067344E-18
   1.50000001E-03   2.33343246E-18
   1.57500000E-03   3.52895763E-18
   1.64999999E-03   5.23580347E-18
   1.72499998E-03   7.63389023E-18
   1.79999997E-03   1.09541568E-17
   1.87499996E-03   1.54898205E-17
   1.94999995E-03   2.16095128E-17
   2.02500005E-03   2.97723544E-17
   2.09999993E-03   4.05453827E-17
   2.17500003E-03   5.46233515E-17
   2.24999990E-03   7.28511862E-17
   2.32500001E-03   9.62493596E-17
   2.40000011E-03   1.26042499E-16
   2.47499999E-03   1.63691393E-16
   2.55000009E-03   2.10928264E-16
   2.62499996E-03   2.69796511E-16
   2.70000007E-03   3.42693887E-16
   2.77499994E-03   4.32420034E-16
   2.85000005E-03   5.42229623E-16
   2.92499992E-03   6.75889940E-16
   3.00000003E-03   8.37743060E-16
   3.07499990E-03   1.03277192E-15
   3.15000000E-03   1.26667530E-15
   3.22500011E-03   1.54594673E-15
   3.29999998E-03   1.87796077E-15
   3.37500009E-03   2.27105966E-15
   3.44999996E-03   2.73465265E-15
   3.52500007E-03   3.27932321E-15
   3.59999994E-03   3.91693869E-15
   3.67500004E-03   4.66075813E-15
   3.74999992E-03   5.52556480E-15
   3.82500002E-03   6.52779917E-15
   3.89999989E-03   7.68568813E-15
   3.97500023E-03   9.01938724E-15
   4.05000011E-03   1.05511362E-14
   4.12499998E-03   1.23054134E-14
   4.19999985E-03   1.43091071E-14
   4.27500019E-03   1.65916712E-14
   4.35000006E-03   1.91852878E-14
   4.42499993E-03   2.21250952E-14
   4.49999981E-03   2.54493319E-14
   4.57500014E-03   2.91995262E-14
   4.65000002E-03   3.34207353E-14
   4.72499989E-03   3.81616634E-14
   4.80000023E-03   4.34749452E-14
   4.87500010E-03   4.94173760E-14
   4.94999997E-03   5.60499489E-14
   5.02499985E-03   6.34381802E-14
   5.10000018E-03   7.16523805E-14
   5.17500006E-03   8.07677289E-14
   5.24999993E-03   9.08646056E-14
   5.32499980E-03   1.02028554E-13
   5.40000014E-03   1.14350790E-13
   5.47500001E-03   1.27928253E-13
   5.54999989E-03   1.42863667E-13
   5.62500022E-03   1.59265938E-13
   5.70000010E-03   1.77250128E-13
   5.77499997E-03   1.96937749E-13
   5.84999984E-03   2.18456831E-13
   5.92500018E-03   2.41941856E-13
   6.00000005E-03   2.67534123E-13
   6.07499992E-03   2.95382046E-13
   6.14999980E-03   3.25640936E-13
   6.22500014E-03   3.58472692E-13
   6.30000001E-03   3.94046341E-13
   6.37499988E-03   4.32538039E-13
   6.45000022E-03   4.74130772E-13
   6.52500009E-03   5.19014573E-13
   6.59999996E-03   5.67385874E-13
   6.67499984E-03   6.19447852E-13
   6.75000018E-03   6.75410411E-13
   6.82500005E-03   7.35489686E-13
   6.89999992E-03   7.99907504E-13
   6.97499979E-03   8.68890843E-13
   7.05000013E-03   9.42672698E-13
   7.12500000E-03   1.02149159E-12
   7.19999988E-03   1.10558947E-12
   7.27500021E-03   1.19521244E-12
   7.35000009E-03   1.29061009E-12
   7.42499996E-03   1.39203384E-12
   7.49999983E-03   1.49973729E-12
   7.57500017E-03   1.61397610E-12
   7.65000004E-03   1.73500699E-12
   7.72499992E-03   1.86308651E-12
   7.79999979E-03   1.99846650E-12
   7.87500013E-03   2.14139774E-12
   7.95000046E-03   2.29212916E-12
   8.02499987E-03   2.45090341E-12
   8.10000021E-03   2.61795772E-12
   8.17499962E-03   2.79352062E-12
   8.24999996E-03   2.97781136E-12
   8.32500029E-03   3.17104069E-12
   8.39999970E-03   3.37340811E-12
   8.47500004E-03   3.58509576E-12
   8.55000038E-03   3.80627387E-12
   8.62499978E-03   4.03709184E-12
   8.70000012E-03   4.27768021E-12
   8.77500046E-03   4.52815173E-12
   8.84999987E-03   4.78859530E-12
   8.92500021E-03   5.05907035E-12
   8.99999961E-03   5.33961070E-12
   9.07499995E-03   5.63022198E-12
   9.15000029E-03   5.93087298E-12
   9.22499970E-03   6.24149604E-12
   9.30000003E-03   6.56199227E-12
   9.37500037E-03   6.89222160E-12
   9.44999978E-03   7.23200102E-12
   9.52500012E-03   7.58110068E-12
   9.60000046E-03   7.93923868E-12
   9.67499986E-03   8.30608932E-12
   9.75000020E-03   8.68126838E-12
   9.82499961E-03   9.06432741E-12
   9.89999995E-03   9.45477290E-12
   9.97500028E-03   9.85204973E-12
   1.00499997E-02   1.02555169E-11
   1.01250000E-02   1.06644745E-11
   1.02000004E-02   1.10781636E-11
   1.02749998E-02   1.14957410E-11
   1.03500001E-02   1.19162831E-11
   1.04250005E-02   1.23387923E-11
   1.04999999E-02   1.27621811E-11
   1.05750002E-02   1.31852888E-11
   1.06499996E-02   1.36068570E-11
   1.07249999E-02   1.40255264E-11
   1.08000003E-02   1.44398495E-11
   1.08749997E-02   1.48482858E-11
   1.09500000E-02   1.52492151E-11
   1.10250004E-02   1.56408914E-11
   1.10999998E-02   1.60214723E-11
   1.11750001E-02   1.63890203E-11
   1.12500004E-02   1.67414815E-11
   1.13249999E-02   1.70766856E-11
   1.14000002E-02   1.73923688E-11
   1.14749996E-02   1.76861581E-11
   1.15499999E-02   1.79555606E-11
   1.16250003E-02   1.81979570E-11
   1.16999997E-02   1.84106792E-11
   1.17750000E-02   1.85909222E-11
   1.18500004E-02   1.87357005E-11
   1.19249998E-02   1.88419575E-11
   1.20000001E-02   1.89065447E-11
   1.20750004E-02   1.89262148E-11
   1.21499998E-02   1.88975988E-11
   1.22250002E-02   1.88172030E-11
   1.22999996E-02   1.86814470E-11
   1.23749999E-02   1.84866844E-11
   1.24500003E-02   1.82291179E-11
   1.25249997E-02   1.79048876E-11
   1.26000000E-02   1.75100715E-11
   1.26750004E-02   1.70405998E-11
   1.27499998E-02   1.64923578E-11
   1.28250001E-02   1.58611718E-11
   1.29000004E-02   1.51427985E-11
   1.29749998E-02   1.43329428E-11
   1.30500002E-02   1.34272246E-11
   1.31249996E-02   1.24212359E-11
   1.31999999E-02   1.13105246E-11
   1.32750003E-02   1.00906132E-11
   1.33499997E-02   8.75704977E-12
   1.34250000E-02   7.30537159E-12
   1.35000004E-02   5.73107707E-12
   1.35749998E-02   4.02966766E-12
   1.36500001E-02   2.19672891E-12
   1.37250004E-02   2.27883034E-13
   1.37999998E-02  -1.88121090E-12
   1.38750002E-02  -4.13481359E-12
   1.39499996E-02  -6.53707340E-12
   1.40249999E-02  -9.09212376E-12
   1.41000003E-02  -1.18039441E-11
   1.41749997E-02  -1.46763764E-11
   1.42500000E-02  -1.77131799E-11
   1.43250003E-02  -2.09178317E-11
   1.43999998E-02  -2.42936279E-11
   1.44750001E-02  -2.78437100E-11
   1.45500004E-02  -3.15710236E-11
   1.46249998E-02  -3.54782384E-11
   1.47000002E-02  -3.95677588E-11
   1.47749996E-02  -4.38417670E-11
   1.48499999E-02  -4.83021331E-11
   1.49250003E-02  -5.29503039E-11
   1.49999997E-02  -5.77875317E-11
   1.50750000E-02  -6.28146007E-11
   1.51500003E-02  -6.80319134E-11
   1.52249997E-02  -7.34395739E-11
   1.53000001E-02  -7.90370408E-11
   1.53750004E-02  -8.48234816E-11
   1.54499998E-02  -9.07975778E-11
   1.55250002E-02  -9.69573727E-11
   1.55999996E-02  -1.03300535E-10
   1.56750008E-02  -1.09824205E-10
   1.57500003E-02  -1.16524790E-10
   1.58249997E-02  -1.23398153E-10
   1.59000009E-02  -1.30439631E-10
   1.59750003E-02  -1.37643924E-10
   1.60499997E-02  -1.45005050E-10
   1.61249992E-02  -1.52516291E-10
   1.62000004E-02  -1.60170252E-10
   1.62749998E-02  -1.67958883E-10
   1.63499992E-02  -1.75873399E-10
   1.64250005E-02  -1.83904197E-10
   1.64999999E-02  -1.92040842E-10
   1.65749993E-02  -2.00272188E-10
   1.66500006E-02  -2.08586245E-10
   1.67250000E-02  -2.16970178E-10
   1.67999994E-02  -2.25410399E-10
   1.68750007E-02  -2.33892489E-10
   1.69500001E-02  -2.42401071E-10
   1.70249995E-02  -2.50920063E-10
   1.71000008E-02  -2.59432337E-10
   1.71750002E-02  -2.67919908E-10
   1.72499996E-02  -2.76364043E-10
   1.73250008E-02  -2.84745033E-10
   1.74000002E-02  -2.93042229E-10
   1.74749997E-02  -3.01234010E-10
   1.75500009E-02  -3.09298004E-10
   1.76250003E-02  -3.17210980E-10
   1.76999997E-02  -3.24948707E-10
   1.77749991E-02  -3.32486261E-10
   1.78500004E-02  -3.39797662E-10
   1.79249998E-02  -3.46856266E-10
   1.79999992E-02  -3.53634511E-10
   1.80750005E-02  -3.60104058E-10
   1.81499999E-02  -3.66235792E-10
   1.82249993E-02  -3.71999737E-10
   1.83000006E-02  -3.77365278E-10
   1.83750000E-02  -3.82301107E-10
   1.84499994E-02  -3.86775140E-10
   1.85250007E-02  -3.90754762E-10
   1.86000001E-02  -3.94206751E-10
   1.86749995E-02  -3.97097327E-10
   1.87500007E-02  -3.99392158E-10
   1.88250002E-02  -4.01056355E-10
   1.88999996E-02  -4.02054834E-10
   1.89750008E-02  -4.02352096E-10
   1.90500002E-02  -4.01912281E-10
   1.91249996E-02  -4.00699335E-10
   1.92000009E-02  -3.98677091E-10
   1.92750003E-02  -3.95809163E-10
   1.93499997E-02  -3.92059274E-10
   1.94249991E-02  -3.87391008E-10
   1.95000004E-02  -3.81768173E-10
   1.95749998E-02  -3.75154796E-10
   1.96499992E-02  -3.67515213E-10
   1.97250005E-02  -3.58814090E-10
   1.97999999E-02  -3.49016427E-10
   1.98749993E-02  -3.38087863E-10
   1.99500006E-02  -3.25994703E-10
   2.00250000E-02  -3.12703974E-10
   2.00999994E-02  -2.98183561E-10
   2.01750007E-02  -2.82402268E-10
   2.02500001E-02  -2.65329925E-10
   2.03249995E-02  -2.46937581E-10
   2.04000007E-02  -2.27197525E-10
   2.04750001E-02  -2.06083456E-10
   2.05499995E-02  -1.83570506E-10
   2.06250008E-02  -1.59635374E-10
   2.07000002E-02  -1.34256509E-10
   2.07749996E-02  -1.07414196E-10
   2.08500009E-02  -7.90907409E-11
   2.09250003E-02  -4.92704592E-11
   2.09999997E-02  -1.79398857E-11
   2.10749991E-02   1.49120768E-11
   2.11500004E-02   4.92941972E-11
   2.12249998E-02   8.52126772E-11
   2.12999992E-02   1.22670901E-10
   2.13750005E-02   1.61669594E-10
   2.14499999E-02   2.02206571E-10
   2.15249993E-02   2.44276460E-10
   2.16000006E-02   2.87870894E-10
   2.16750000E-02   3.32978090E-10
   2.17499994E-02   3.79582921E-10
   2.18250006E-02   4.27666985E-10
   2.19000001E-02   4.77208051E-10
   2.19749995E-02   5.28180111E-10
   2.20500007E-02   5.80553550E-10
   2.21250001E-02   6.34294839E-10
   2.21999995E-02   6.89366286E-10
   2.22750008E-02   7.45726536E-10
   2.23500002E-02   8.03329459E-10
   2.24249996E-02   8.62124871E-10
   2.25000009E-02   9.22058485E-10
   2.25750003E-02   9.83071291E-10
   2.26499997E-02   1.04510001E-09
   2.27249991E-02   1.10807719E-09
   2.28000004E-02   1.17193055E-09
   2.28749998E-02   1.23658261E-09
   2.29499992E-02   1.30195221E-09
   2.30250005E-02   1.36795286E-09
   2.30999999E-02   1.43449352E-09
   2.31749993E-02   1.50147894E-09
   2.32500006E-02   1.56880875E-09
   2.33250000E-02   1.63637748E-09
   2.33999994E-02   1.70407577E-09
   2.34750006E-02   1.77178916E-09
   2.35500000E-02   1.83939908E-09
   2.36249994E-02   1.90678229E-09
   2.37000007E-02   1.97381023E-09
   2.37750001E-02   2.04035100E-09
   2.38499995E-02   2.10626827E-09
   2.39250008E-02   2.17142082E-09
   2.40000002E-02   2.23566321E-09
   2.40749996E-02   2.29884645E-09
   2.41500009E-02   2.36081754E-09
   2.42250003E-02   2.42142173E-09
   2.42999997E-02   2.48049759E-09
   2.43749991E-02   2.53788079E-09
   2.44500004E-02   2.59340460E-09
   2.45249998E-02   2.64690070E-09
   2.45999992E-02   2.69819567E-09
   2.46750005E-02   2.74711454E-09
   2.47499999E-02   2.79348145E-09
   2.48249993E-02   2.83711588E-09
   2.49000005E-02   2.87783619E-09
   2.49749999E-02   2.91546032E-09
   2.50499994E-02   2.94980396E-09
   2.51250006E-02   2.98068237E-09
   2.52000000E-02   3.00790992E-09
   2.52749994E-02   3.03130077E-09
   2.53500007E-02   3.05066994E-09
   2.54250001E-02   3.06583248E-09
   2.54999995E-02   3.07660386E-09
   2.55750008E-02   3.08280068E-09
   2.56500002E-02   3.08424086E-09
   2.57249996E-02   3.08074499E-09
   2.58000009E-02   3.07213588E-09
   2.58750003E-02   3.05824011E-09
   2.59499997E-02   3.03888736E-09
   2.60249991E-02   3.01390934E-09
   2.61000004E-02   2.98314395E-09
   2.61749998E-02   2.94643221E-09
   2.62499992E-02   2.90362090E-09
   2.63250005E-02   2.85456370E-09
   2.63999999E-02   2.79911849E-09
   2.64749993E-02   2.73715228E-09
   2.65500005E-02   2.66853695E-09
   2.66249999E-02   2.59315192E-09
   2.66999993E-02   2.51088661E-09
   2.67750006E-02   2.42163867E-09
   2.68500000E-02   2.32531394E-09
   2.69249994E-02   2.22182872E-09
   2.70000007E-02   2.11110884E-09
   2.70750001E-02   1.99309058E-09
   2.71499995E-02   1.86772420E-09
   2.72250008E-02   1.73496939E-09
   2.73000002E-02   1.59479829E-09
   2.73749996E-02   1.44719725E-09
   2.74500009E-02   1.29216438E-09
   2.75250003E-02   1.12971321E-09
   2.75999997E-02   9.59869739E-10
   2.76749991E-02   7.82675924E-10
   2.77500004E-02   5.98190331E-10
   2.78249998E-02   4.06484679E-10
   2.78999992E-02   2.07646067E-10
   2.79750004E-02   1.78099159E-12
   2.80499998E-02  -2.10987380E-10
   2.81249993E-02  -4.30520647E-10
   2.82000005E-02  -6.56659449E-10
   2.82749999E-02  -8.89227247E-10
   2.83499993E-02  -1.12803211E-09
   2.84250006E-02  -1.37286182E-09
   2.85000000E-02  -1.62348512E-09
   2.85749994E-02  -1.87964977E-09
   2.86500007E-02  -2.14108464E-09
   2.87250001E-02  -2.40749976E-09
   2.87999995E-02  -2.67858380E-09
   2.88750008E-02  -2.95400615E-09
   2.89500002E-02  -3.23341598E-09
   2.90249996E-02  -3.51644358E-09
   2.91000009E-02  -3.80269771E-09
   2.91750003E-02  -4.09176826E-09
   2.92499997E-02  -4.38322312E-09
   2.93249991E-02  -4.67661065E-09
   2.94000003E-02  -4.97145836E-09
   2.94749998E-02  -5.26727240E-09
   2.95499992E-02  -5.56354074E-09
   2.96250004E-02  -5.85973492E-09
   2.96999998E-02  -6.15530427E-09
   2.97749992E-02  -6.44967946E-09
   2.98500005E-02  -6.74227252E-09
   2.99249999E-02  -7.03247816E-09
   2.99999993E-02  -7.31967287E-09
   3.00750006E-02  -7.60321406E-09
   3.01500000E-02  -7.88244492E-09
   3.02249994E-02  -8.15669310E-09
   3.03000007E-02  -8.42526759E-09
   3.03750001E-02  -8.68746586E-09
   3.04499995E-02  -8.94256935E-09
   3.05250008E-02  -9.18984711E-09
   3.06000002E-02  -9.42855749E-09
   3.06749996E-02  -9.65794555E-09
   3.07500008E-02  -9.87724658E-09
   3.08250003E-02  -1.00856887E-08
   3.08999997E-02  -1.02824886E-08
   3.09749991E-02  -1.04668585E-08
   3.10500003E-02  -1.06380016E-08
   3.11249997E-02  -1.07951195E-08
   3.11999992E-02  -1.09374092E-08
   3.12750004E-02  -1.10640652E-08
   3.13500017E-02  -1.11742819E-08
   3.14249992E-02  -1.12672529E-08
   3.15000005E-02  -1.13421770E-08
   3.15750018E-02  -1.13982539E-08
   3.16499993E-02  -1.14346888E-08
   3.17250006E-02  -1.14506946E-08
   3.18000019E-02  -1.14454926E-08
   3.18749994E-02  -1.14183134E-08
   3.19500007E-02  -1.13684004E-08
   3.20249982E-02  -1.12950111E-08
   3.20999995E-02  -1.11974163E-08
   3.21750008E-02  -1.10749054E-08
   3.22499983E-02  -1.09267884E-08
   3.23249996E-02  -1.07523954E-08
   3.24000008E-02  -1.05510782E-08
   3.24749984E-02  -1.03222151E-08
   3.25499997E-02  -1.00652100E-08
   3.26250009E-02  -9.77949632E-09
   3.26999985E-02  -9.46453849E-09
   3.27749997E-02  -9.11983289E-09
   3.28500010E-02  -8.74491146E-09
   3.29249986E-02  -8.33934610E-09
   3.29999998E-02  -7.90274335E-09
   3.30750011E-02  -7.43475415E-09
   3.31499986E-02  -6.93507118E-09
   3.32249999E-02  -6.40342979E-09
   3.33000012E-02  -5.83961590E-09
   3.33749987E-02  -5.24346477E-09
   3.34500000E-02  -4.61486005E-09
   3.35250013E-02  -3.95373911E-09
   3.35999988E-02  -3.26009730E-09
   3.36750001E-02  -2.53398458E-09
   3.37500013E-02  -1.77551218E-09
   3.38249989E-02  -9.84849424E-10
   3.39000002E-02  -1.62227065E-10
   3.39750014E-02   6.92056412E-10
   3.40499990E-02   1.57763791E-09
   3.41250002E-02   2.49408694E-09
   3.42000015E-02   3.44090423E-09
   3.42749991E-02   4.41751258E-09
   3.43500003E-02   5.42327028E-09
   3.44250016E-02   6.45746434E-09
   3.44999991E-02   7.51930429E-09
   3.45750004E-02   8.60791705E-09
   3.46500017E-02   9.72235448E-09
   3.47249992E-02   1.08616023E-08
   3.48000005E-02   1.20245565E-08
   3.48750018E-02   1.32100251E-08
   3.49499993E-02   1.44167451E-08
   3.50250006E-02   1.56433746E-08
   3.51000018E-02   1.68884835E-08
   3.51749994E-02   1.81505637E-08
   3.52500007E-02   1.94280183E-08
   3.53249982E-02   2.07191739E-08
   3.53999995E-02   2.20222773E-08
   3.54750007E-02   2.33354829E-08
   3.55499983E-02   2.46568579E-08
   3.56249996E-02   2.59843951E-08
   3.57000008E-02   2.73160108E-08
   3.57749984E-02   2.86495325E-08
   3.58499996E-02   2.99827185E-08
   3.59250009E-02   3.13132311E-08
   3.59999985E-02   3.26386669E-08
   3.60749997E-02   3.39565354E-08
   3.61500010E-02   3.52642786E-08
   3.62249985E-02   3.65592747E-08
   3.62999998E-02   3.78388236E-08
   3.63750011E-02   3.91001471E-08
   3.64499986E-02   4.03403959E-08
   3.65249999E-02   4.15566568E-08
   3.66000012E-02   4.27459668E-08
   3.66749987E-02   4.39052918E-08
   3.67500000E-02   4.50315518E-08
   3.68250012E-02   4.61216132E-08
   3.68999988E-02   4.71722785E-08
   3.69750001E-02   4.81803113E-08
   3.70500013E-02   4.91424323E-08
   3.71249989E-02   5.00553128E-08
   3.72000001E-02   5.09156024E-08
   3.72750014E-02   5.17198977E-08
   3.73499990E-02   5.24647881E-08
   3.74250002E-02   5.31468345E-08
   3.75000015E-02   5.37625908E-08
   3.75749990E-02   5.43085825E-08
   3.76500003E-02   5.47813137E-08
   3.77250016E-02   5.51772956E-08
   3.77999991E-02   5.54930573E-08
   3.78750004E-02   5.57251241E-08
   3.79500017E-02   5.58700357E-08
   3.80249992E-02   5.59243531E-08
   3.81000005E-02   5.58846729E-08
   3.81750017E-02   5.57475985E-08
   3.82499993E-02   5.55097657E-08
   3.83250006E-02   5.51678738E-08
   3.84000018E-02   5.47186865E-08
   3.84749994E-02   5.41590026E-08
   3.85500006E-02   5.34856817E-08
   3.86249982E-02   5.26956647E-08
   3.86999995E-02   5.17859817E-08
   3.87750007E-02   5.07537372E-08
   3.88499983E-02   4.95961068E-08
   3.89249995E-02   4.83103619E-08
   3.90000008E-02   4.68939128E-08
   3.90749983E-02   4.53442794E-08
   3.91499996E-02   4.36590959E-08
   3.92250009E-02   4.18361203E-08
   3.92999984E-02   3.98732389E-08
   3.93749997E-02   3.77684870E-08
   3.94500010E-02   3.55200775E-08
   3.95249985E-02   3.31263514E-08
   3.95999998E-02   3.05858094E-08
   3.96750011E-02   2.78971530E-08
   3.97499986E-02   2.50592578E-08
   3.98249999E-02   2.20711733E-08
   3.99000011E-02   1.89321341E-08
   3.99749987E-02   1.56416000E-08
   4.00500000E-02   1.21992514E-08
   4.01250012E-02   8.60495497E-09
   4.01999988E-02   4.85880935E-09
   4.02750000E-02   9.61150604E-10
   4.03500013E-02  -3.08744030E-09
   4.04249988E-02  -7.28616278E-09
   4.05000001E-02  -1.16339542E-08
   4.05750014E-02  -1.61294871E-08
   4.06499989E-02  -2.07711874E-08
   4.07250002E-02  -2.55572026E-08
   4.08000015E-02  -3.04854204E-08
   4.08749990E-02  -3.55534517E-08
   4.09500003E-02  -4.07586072E-08
   4.10250016E-02  -4.60979024E-08
   4.10999991E-02  -5.15681009E-08
   4.11750004E-02  -5.71656322E-08
   4.12500016E-02  -6.28866417E-08
   4.13249992E-02  -6.87269690E-08
   4.14000005E-02  -7.46821485E-08
   4.14750017E-02  -8.07473697E-08
   4.15499993E-02  -8.69175594E-08
   4.16250005E-02  -9.31873032E-08
   4.17000018E-02  -9.95508671E-08
   4.17749994E-02  -1.06002226E-07
   4.18500006E-02  -1.12535005E-07
   4.19249982E-02  -1.19142534E-07
   4.19999994E-02  -1.25817820E-07
   4.20750007E-02  -1.32553510E-07
   4.21499982E-02  -1.39341992E-07
   4.22249995E-02  -1.46175296E-07
   4.23000008E-02  -1.53045150E-07
   4.23749983E-02  -1.59942957E-07
   4.24499996E-02  -1.66859877E-07
   4.25250009E-02  -1.73786674E-07
   4.25999984E-02  -1.80713840E-07
   4.26749997E-02  -1.87631571E-07
   4.27500010E-02  -1.94529747E-07
   4.28249985E-02  -2.01397995E-07
   4.28999998E-02  -2.08225629E-07
   4.29750010E-02  -2.15001705E-07
   4.30499986E-02  -2.21715027E-07
   4.31249999E-02  -2.28354139E-07
   4.32000011E-02  -2.34907276E-07
   4.32749987E-02  -2.41362471E-07
   4.33499999E-02  -2.47707476E-07
   4.34250012E-02  -2.53929926E-07
   4.34999987E-02  -2.60017089E-07
   4.35750000E-02  -2.65956146E-07
   4.36500013E-02  -2.71734024E-07
   4.37249988E-02  -2.77337534E-07
   4.38000001E-02  -2.82753234E-07
   4.38750014E-02  -2.87967652E-07
   4.39499989E-02  -2.92967002E-07
   4.40250002E-02  -2.97737500E-07
   4.41000015E-02  -3.02265249E-07
   4.41749990E-02  -3.06536180E-07
   4.42500003E-02  -3.10536194E-07
   4.43250015E-02  -3.14251139E-07
   4.43999991E-02  -3.17666775E-07
   4.44750004E-02  -3.20768919E-07
   4.45500016E-02  -3.23543276E-07
   4.46249992E-02  -3.25975662E-07
   4.47000004E-02  -3.28051783E-07
   4.47750017E-02  -3.29757540E-07
   4.48499992E-02  -3.31078837E-07
   4.49250005E-02  -3.32001662E-07
   4.50000018E-02  -3.32512087E-07
   4.50749993E-02  -3.32596386E-07
   4.51500006E-02  -3.32240916E-07
   4.52249981E-02  -3.31432233E-07
   4.52999994E-02  -3.30157178E-07
   4.53750007E-02  -3.28402677E-07
   4.54499982E-02  -3.26155941E-07
   4.55249995E-02  -3.23404436E-07
   4.56000008E-02  -3.20135996E-07
   4.56749983E-02  -3.16338685E-07
   4.57499996E-02  -3.12000964E-07
   4.58250009E-02  -3.07111605E-07
   4.58999984E-02  -3.01659810E-07
   4.59749997E-02  -2.95635147E-07
   4.60500009E-02  -2.89027696E-07
   4.61249985E-02  -2.81827909E-07
   4.61999997E-02  -2.74026775E-07
   4.62750010E-02  -2.65615796E-07
   4.63499986E-02  -2.56586986E-07
   4.64249998E-02  -2.46932927E-07
   4.65000011E-02  -2.36646812E-07
   4.65749986E-02  -2.25722374E-07
   4.66499999E-02  -2.14153985E-07
   4.67250012E-02  -2.01936786E-07
   4.67999987E-02  -1.89066540E-07
   4.68750000E-02  -1.75539626E-07
   4.69500013E-02  -1.61353256E-07
   4.70249988E-02  -1.46505343E-07
   4.71000001E-02  -1.30994607E-07
   4.71750014E-02  -1.14820551E-07
   4.72499989E-02  -9.79834738E-08
   4.73250002E-02  -8.04845399E-08
   4.74000014E-02  -6.23257677E-08
   4.74749990E-02  -4.35100453E-08
   4.75500003E-02  -2.40411691E-08
   4.76250015E-02  -3.92386834E-09
   4.76999991E-02   1.68362089E-08
   4.77750003E-02   3.82324785E-08
   4.78500016E-02   6.02573564E-08
   4.79249991E-02   8.29023108E-08
   4.80000004E-02   1.06157771E-07
   4.80750017E-02   1.30013149E-07
   4.81499992E-02   1.54456885E-07
   4.82250005E-02   1.79476302E-07
   4.83000018E-02   2.05057717E-07
   4.83749993E-02   2.31186306E-07
   4.84500006E-02   2.57846267E-07
   4.85250019E-02   2.85020718E-07
   4.85999994E-02   3.12691668E-07
   4.86750007E-02   3.40839904E-07
   4.87499982E-02   3.69445246E-07
   4.88249995E-02   3.98486435E-07
   4.89000008E-02   4.27941103E-07
   4.89749983E-02   4.57785660E-07
   4.90499996E-02   4.87995521E-07
   4.91250008E-02   5.18544937E-07
   4.91999984E-02   5.49407162E-07
   4.92749996E-02   5.80554172E-07
   4.93500009E-02   6.11956978E-07
   4.94249985E-02   6.43585452E-07
   4.94999997E-02   6.75408501E-07
   4.95750010E-02   7.07393838E-07
   4.96499985E-02   7.39508209E-07
   4.97249998E-02   7.71717282E-07
   4.98000011E-02   8.03985643E-07
   4.98749986E-02   8.36276911E-07
   4.99499999E-02   8.68553798E-07
   5.00250012E-02   9.00777877E-07
   5.00999987E-02   9.32909984E-07
   5.01750000E-02   9.64909873E-07
   5.02500013E-02   9.96736389E-07
   5.03249988E-02   1.02834770E-06
   5.04000001E-02   1.05970082E-06
   5.04750013E-02   1.09075211E-06
   5.05499989E-02   1.12145722E-06
   5.06250001E-02   1.15177090E-06
   5.07000014E-02   1.18164735E-06
   5.07749990E-02   1.21103972E-06
   5.08500002E-02   1.23990094E-06
   5.09250015E-02   1.26818327E-06
   5.09999990E-02   1.29583816E-06
   5.10750003E-02   1.32281650E-06
   5.11500016E-02   1.34906907E-06
   5.12249991E-02   1.37454583E-06
   5.13000004E-02   1.39919655E-06
   5.13750017E-02   1.42297063E-06
   5.14499992E-02   1.44581736E-06
   5.15250005E-02   1.46768559E-06
   5.16000018E-02   1.48852382E-06
   5.16749993E-02   1.50828089E-06
   5.17500006E-02   1.52690507E-06
   5.18250018E-02   1.54434497E-06
   5.18999994E-02   1.56054909E-06
   5.19750006E-02   1.57546606E-06
   5.20499982E-02   1.58904447E-06
   5.21249995E-02   1.60123341E-06
   5.22000007E-02   1.61198204E-06
   5.22749983E-02   1.62124013E-06
   5.23499995E-02   1.62895776E-06
   5.24250008E-02   1.63508560E-06
   5.24999984E-02   1.63957441E-06
   5.25749996E-02   1.64237599E-06
   5.26500009E-02   1.64344294E-06
   5.27249984E-02   1.64272831E-06
   5.27999997E-02   1.64018604E-06
   5.28750010E-02   1.63577090E-06
   5.29499985E-02   1.62943888E-06
   5.30249998E-02   1.62114679E-06
   5.31000011E-02   1.61085256E-06
   5.31749986E-02   1.59851561E-06
   5.32499999E-02   1.58409637E-06
   5.33250012E-02   1.56755652E-06
   5.33999987E-02   1.54885925E-06
   5.34750000E-02   1.52796918E-06
   5.35500012E-02   1.50485243E-06
   5.36249988E-02   1.47947719E-06
   5.37000000E-02   1.45181275E-06
   5.37750013E-02   1.42183046E-06
   5.38499989E-02   1.38950350E-06
   5.39250001E-02   1.35480695E-06
   5.40000014E-02   1.31771799E-06
   5.40749989E-02   1.27821568E-06
   5.41500002E-02   1.23628126E-06
   5.42250015E-02   1.19189826E-06
   5.42999990E-02   1.14505224E-06
   5.43750003E-02   1.09573136E-06
   5.44500016E-02   1.04392620E-06
   5.45249991E-02   9.89629598E-07
   5.46000004E-02   9.32837111E-07
   5.46750017E-02   8.73546526E-07
   5.47499992E-02   8.11758639E-07
   5.48250005E-02   7.47476861E-07
   5.49000017E-02   6.80707331E-07
   5.49749993E-02   6.11459200E-07
   5.50500005E-02   5.39743951E-07
   5.51250018E-02   4.65576591E-07
   5.51999994E-02   3.88974769E-07
   5.52750006E-02   3.09959319E-07
   5.53499982E-02   2.28554072E-07
   5.54249994E-02   1.44785872E-07
   5.55000007E-02   5.86849147E-08
   5.55749983E-02  -2.97155154E-08
   5.56499995E-02  -1.20379013E-07
   5.57250008E-02  -2.13265849E-07
   5.57999983E-02  -3.08332915E-07
   5.58749996E-02  -4.05533825E-07
   5.59500009E-02  -5.04818956E-07
   5.60249984E-02  -6.06135302E-07
   5.60999997E-02  -7.09426388E-07
   5.61750010E-02  -8.14632472E-07
   5.62499985E-02  -9.21690400E-07
   5.63249998E-02  -1.03053355E-06
   5.64000010E-02  -1.14109196E-06
   5.64749986E-02  -1.25329223E-06
   5.65499999E-02  -1.36705751E-06
   5.66250011E-02  -1.48230765E-06
   5.66999987E-02  -1.59895922E-06
   5.67749999E-02  -1.71692500E-06
   5.68500012E-02  -1.83611496E-06
   5.69249988E-02  -1.95643543E-06
   5.70000000E-02  -2.07778930E-06
   5.70750013E-02  -2.20007655E-06
   5.71499988E-02  -2.32319326E-06
   5.72250001E-02  -2.44703347E-06
   5.73000014E-02  -2.57148690E-06
   5.73749989E-02  -2.69644056E-06
   5.74500002E-02  -2.82177893E-06
   5.75250015E-02  -2.94738265E-06
   5.75999990E-02  -3.07312985E-06
   5.76750003E-02  -3.19889568E-06
   5.77500015E-02  -3.32455238E-06
   5.78249991E-02  -3.44996988E-06
   5.79000004E-02  -3.57501517E-06
   5.79750016E-02  -3.69955228E-06
   5.80499992E-02  -3.82344342E-06
   5.81250004E-02  -3.94654762E-06
   5.82000017E-02  -4.06872186E-06
   5.82749993E-02  -4.18982199E-06
   5.83500005E-02  -4.30970022E-06
   5.84250018E-02  -4.42820692E-06
   5.84999993E-02  -4.54519159E-06
   5.85750006E-02  -4.66050096E-06
   5.86499982E-02  -4.77398044E-06
   5.87249994E-02  -4.88547403E-06
   5.88000007E-02  -4.99482394E-06
   5.88749982E-02  -5.10187147E-06
   5.89499995E-02  -5.20645744E-06
   5.90250008E-02  -5.30841953E-06
   5.90999983E-02  -5.40759720E-06
   5.91749996E-02  -5.50382629E-06
   5.92500009E-02  -5.59694490E-06
   5.93249984E-02  -5.68678888E-06
   5.93999997E-02  -5.77319452E-06
   5.94750009E-02  -5.85599810E-06
   5.95499985E-02  -5.93503501E-06
   5.96249998E-02  -6.01014153E-06
   5.97000010E-02  -6.08115488E-06
   5.97749986E-02  -6.14791225E-06
   5.98499998E-02  -6.21025174E-06
   5.99250011E-02  -6.26801238E-06
   5.99999987E-02  -6.32103365E-06
   6.00749999E-02  -6.36915684E-06
   6.01500012E-02  -6.41222550E-06
   6.02249987E-02  -6.45008367E-06
   6.03000000E-02  -6.48257674E-06
   6.03750013E-02  -6.50955371E-06
   6.04499988E-02  -6.53086454E-06
   6.05250001E-02  -6.54636324E-06
   6.06000014E-02  -6.55590429E-06
   6.06749989E-02  -6.55934628E-06
   6.07500002E-02  -6.55655140E-06
   6.08250014E-02  -6.54738324E-06
   6.08999990E-02  -6.53171082E-06
   6.09750003E-02  -6.50940501E-06
   6.10500015E-02  -6.48034074E-06
   6.11249991E-02  -6.44439797E-06
   6.12000003E-02  -6.40145981E-06
   6.12750016E-02  -6.35141487E-06
   6.13499992E-02  -6.29415536E-06
   6.14250004E-02  -6.22957850E-06
   6.15000017E-02  -6.15758745E-06
   6.15749992E-02  -6.07808852E-06
   6.16500005E-02  -5.99099485E-06
   6.17250018E-02  -5.89622596E-06
   6.17999993E-02  -5.79370544E-06
   6.18750006E-02  -5.68336372E-06
   6.19499981E-02  -5.56513714E-06
   6.20249994E-02  -5.43896840E-06
   6.21000007E-02  -5.30480702E-06
   6.21749982E-02  -5.16260798E-06
   6.22499995E-02  -5.01233490E-06
   6.23250008E-02  -4.85395731E-06
   6.23999983E-02  -4.68745247E-06
   6.24749996E-02  -4.51280448E-06
   6.25500008E-02  -4.33000605E-06
   6.26249984E-02  -4.13905536E-06
   6.27000034E-02  -3.93996061E-06
   6.27750009E-02  -3.73273656E-06
   6.28499985E-02  -3.51740755E-06
   6.29250035E-02  -3.29400541E-06
   6.30000010E-02  -3.06256925E-06
   6.30749986E-02  -2.82314818E-06
   6.31500036E-02  -2.57579973E-06
   6.32250011E-02  -2.32058937E-06
   6.32999986E-02  -2.05759216E-06
   6.33750036E-02  -1.78689243E-06
   6.34500012E-02  -1.50858284E-06
   6.35249987E-02  -1.22276492E-06
   6.36000037E-02  -9.29549913E-07
   6.36750013E-02  -6.29058434E-07
   6.37499988E-02  -3.21420345E-07
   6.38249964E-02  -6.77442191E-09
   6.39000013E-02   3.14730613E-07
   6.39749989E-02   6.42936811E-07
   6.40499964E-02   9.77676450E-07
   6.41250014E-02   1.31877255E-06
   6.41999990E-02   1.66603888E-06