   0.00000000       0.00000000    
   7.50000036E-05   0.00000000    
   1.50000007E-04   0.00000000    
   2.24999996E-04   0.00000000    
   3.00000014E-04   6.85544976E-25
   3.75000003E-04   6.98230490E-24
   4.49999992E-04   3.84400812E-23
   5.24999981E-04   1.52398524E-22
   6.00000028E-04   4.87979612E-22
   6.75000018E-04   1.34153378E-21
   7.50000007E-04   3.28684982E-21
   8.24999996E-04   7.35612930E-21
   8.99999985E-04   1.53006942E-20
   9.74999974E-04   2.99531503E-20
   1.04999996E-03   5.57165855E-20
   1.12499995E-03   9.92086370E-20
   1.20000006E-03   1.70093550E-19
   1.27500005E-03   2.82139054E-19
   1.35000004E-03   4.54529698E-19
   1.42500002E-03   7.13493736E-19
   1.50000001E-03   1.09427227E-18
   1.57500000E-03   1.64349073E-18
   1.64999999E-03   2.42198587E-18
   1.72499998E-03   3.50813791E-18
   1.79999997E-03   5.00169812E-18
   1.87499996E-03   7.02835597E-18
   1.94999995E-03   9.74493539E-18
   2.02500005E-03   1.33452688E-17
   2.09999993E-03   1.80670556E-17
   2.17500003E-03   2.41994302E-17
   2.24999990E-03   3.20915836E-17
   2.32500001E-03   4.21623156E-17
   2.40000011E-03   5.49110780E-17
   2.47499999E-03   7.09292023E-17
   2.55000009E-03   9.09130786E-17
   2.62499996E-03   1.15678945E-16
   2.70000007E-03   1.46178537E-16
   2.77499994E-03   1.83516067E-16
   2.85000005E-03   2.28966532E-16
   2.92499992E-03   2.83996224E-16
   3.00000003E-03   3.50284467E-16
   3.07499990E-03   4.29748042E-16
   3.15000000E-03   5.24562528E-16
   3.22500011E-03   6.37191599E-16
   3.29999998E-03   7.70416805E-16
   3.37500009E-03   9.27363223E-16
   3.44999996E-03   1.11153815E-15
   3.52500007E-03   1.32685827E-15
   3.59999994E-03   1.57768420E-15
   3.67500004E-03   1.86886618E-15
   3.74999992E-03   2.20577396E-15
   3.82500002E-03   2.59433274E-15
   3.89999989E-03   3.04106957E-15
   3.97500023E-03   3.55317616E-15
   4.05000011E-03   4.13852759E-15
   4.12499998E-03   4.80572994E-15
   4.19999985E-03   5.56417256E-15
   4.27500019E-03   6.42407617E-15
   4.35000006E-03   7.39653818E-15
   4.42499993E-03   8.49359831E-15
   4.49999981E-03   9.72826149E-15
   4.57500014E-03   1.11145495E-14
   4.65000002E-03   1.26675708E-14
   4.72499989E-03   1.44035717E-14
   4.80000023E-03   1.63399855E-14
   4.87500010E-03   1.84954591E-14
   4.94999997E-03   2.08898518E-14
   5.02499985E-03   2.35443396E-14
   5.10000018E-03   2.64815771E-14
   5.17500006E-03   2.97254998E-14
   5.24999993E-03   3.33014629E-14
   5.32499980E-03   3.72365035E-14
   5.40000014E-03   4.15590176E-14
   5.47500001E-03   4.62988548E-14
   5.54999989E-03   5.14875923E-14
   5.62500022E-03   5.71582237E-14
   5.70000010E-03   6.33454538E-14
   5.77499997E-03   7.00856067E-14
   5.84999984E-03   7.74164465E-14
   5.92500018E-03   8.53774720E-14
   6.00000005E-03   9.40100387E-14
   6.07499992E-03   1.03356851E-13
   6.14999980E-03   1.13461839E-13
   6.22500014E-03   1.24370674E-13
   6.30000001E-03   1.36130622E-13
   6.37499988E-03   1.48790024E-13
   6.45000022E-03   1.62398781E-13
   6.52500009E-03   1.77007958E-13
   6.59999996E-03   1.92669475E-13
   6.67499984E-03   2.09436675E-13
   6.75000018E-03   2.27363647E-13
   6.82500005E-03   2.46505046E-13
   6.89999992E-03   2.66916507E-13
   6.97499979E-03   2.88654002E-13
   7.05000013E-03   3.11772689E-13
   7.12500000E-03   3.36328513E-13
   7.19999988E-03   3.62378964E-13
   7.27500021E-03   3.89978739E-13
   7.35000009E-03   4.19181915E-13
   7.42499996E-03   4.50042564E-13
   7.49999983E-03   4.82613027E-13
   7.57500017E-03   5.16943855E-13
   7.65000004E-03   5.53082428E-13
   7.72499992E-03   5.91076992E-13
   7.79999979E-03   6.30971187E-13
   7.87500013E-03   6.72803610E-13
   7.95000046E-03   7.16611883E-13
   8.02499987E-03   7.62428207E-13
   8.10000021E-03   8.10280337E-13
   8.17499962E-03   8.60192614E-13
   8.24999996E-03   9.12183523E-13
   8.32500029E-03   9.66263853E-13
   8.39999970E-03   1.02243886E-12
   8.47500004E-03   1.08070464E-12
   8.55000038E-03   1.14104906E-12
   8.62499978E-03   1.20345281E-12
   8.70000012E-03   1.26788716E-12
   8.77500046E-03   1.33431168E-12
   8.84999987E-03   1.40267778E-12
   8.92500021E-03   1.47292747E-12
   8.99999961E-03   1.54498506E-12
   9.07499995E-03   1.61876187E-12
   9.15000029E-03   1.69415567E-12
   9.22499970E-03   1.77105000E-12
   9.30000003E-03   1.84931280E-12
   9.37500037E-03   1.92879350E-12
   9.44999978E-03   2.00932803E-12
   9.52500012E-03   2.09073080E-12
   9.60000046E-03   2.17280252E-12
   9.67499986E-03   2.25531941E-12
   9.75000020E-03   2.33803211E-12
   9.82499961E-03   2.42067651E-12
   9.89999995E-03   2.50296225E-12
   9.97500028E-03   2.58458381E-12
   1.00499997E-02   2.66520248E-12
   1.01250000E-02   2.74443576E-12
   1.02000004E-02   2.82189203E-12
   1.02749998E-02   2.89715821E-12
   1.03500001E-02   2.96978609E-12
   1.04250005E-02   3.03929082E-12
   1.04999999E-02   3.10516565E-12
   1.05750002E-02   3.16686889E-12
   1.06499996E-02   3.22382182E-12
   1.07249999E-02   3.27541987E-12
   1.08000003E-02   3.32101404E-12
   1.08749997E-02   3.35992844E-12
   1.09500000E-02   3.39145855E-12
   1.10250004E-02   3.41486128E-12
   1.10999998E-02   3.42934600E-12
   1.11750001E-02   3.43408548E-12
   1.12500004E-02   3.42821821E-12
   1.13249999E-02   3.41083672E-12
   1.14000002E-02   3.38098993E-12
   1.14749996E-02   3.33770359E-12
   1.15499999E-02   3.27997243E-12
   1.16250003E-02   3.20672915E-12
   1.16999997E-02   3.11686245E-12
   1.17750000E-02   3.00923501E-12
   1.18500004E-02   2.88266004E-12
   1.19249998E-02   2.73591935E-12
   1.20000001E-02   2.56777022E-12
   1.20750004E-02   2.37690835E-12
   1.21499998E-02   2.16197416E-12
   1.22250002E-02   1.92160155E-12
   1.22999996E-02   1.65436924E-12
   1.23749999E-02   1.35882093E-12
   1.24500003E-02   1.03348688E-12
   1.25249997E-02   6.76813260E-13
   1.26000000E-02   2.87236923E-13
   1.26750004E-02  -1.36823699E-13
   1.27499998E-02  -5.96985027E-13
   1.28250001E-02  -1.09489815E-12
   1.29000004E-02  -1.63225954E-12
   1.29749998E-02  -2.21079947E-12
   1.30500002E-02  -2.83221710E-12
   1.31249996E-02  -3.49824054E-12
   1.31999999E-02  -4.21063835E-12
   1.32750003E-02  -4.97118405E-12
   1.33499997E-02  -5.78168676E-12
   1.34250000E-02  -6.64395058E-12
   1.35000004E-02  -7.55976358E-12
   1.35749998E-02  -8.53095025E-12
   1.36500001E-02  -9.55929867E-12
   1.37250004E-02  -1.06465826E-11
   1.37999998E-02  -1.17946651E-11
   1.38750002E-02  -1.30052878E-11
   1.39499996E-02  -1.42802332E-11
   1.40249999E-02  -1.56212734E-11
   1.41000003E-02  -1.70300423E-11
   1.41749997E-02  -1.85082071E-11
   1.42500000E-02  -2.00574574E-11
   1.43250003E-02  -2.16793580E-11
   1.43999998E-02  -2.33754422E-11
   1.44750001E-02  -2.51472333E-11
   1.45500004E-02  -2.69961380E-11
   1.46249998E-02  -2.89235042E-11
   1.47000002E-02  -3.09305880E-11
   1.47749996E-02  -3.30185636E-11
   1.48499999E-02  -3.51885431E-11
   1.49250003E-02  -3.74415429E-11
   1.49999997E-02  -3.97784618E-11
   1.50750000E-02  -4.22000733E-11
   1.51500003E-02  -4.47069881E-11
   1.52249997E-02  -4.72997162E-11
   1.53000001E-02  -4.99786879E-11
   1.53750004E-02  -5.27441736E-11
   1.54499998E-02  -5.55963053E-11
   1.55250002E-02  -5.85349963E-11
   1.55999996E-02  -6.15599724E-11
   1.56750008E-02  -6.46708034E-11
   1.57500003E-02  -6.78669343E-11
   1.58249997E-02  -7.11476017E-11
   1.59000009E-02  -7.45116746E-11
   1.59750003E-02  -7.79579457E-11
   1.60499997E-02  -8.14849785E-11
   1.61249992E-02  -8.50910384E-11
   1.62000004E-02  -8.87741686E-11
   1.62749998E-02  -9.25320653E-11
   1.63499992E-02  -9.63623348E-11
   1.64250005E-02  -1.00262319E-10
   1.64999999E-02  -1.04228987E-10
   1.65749993E-02  -1.08258943E-10
   1.66500006E-02  -1.12348630E-10
   1.67250000E-02  -1.16494162E-10
   1.67999994E-02  -1.20691249E-10
   1.68750007E-02  -1.24935312E-10
   1.69500001E-02  -1.29221481E-10
   1.70249995E-02  -1.33544495E-10
   1.71000008E-02  -1.37898665E-10
   1.71750002E-02  -1.42278092E-10
   1.72499996E-02  -1.46676435E-10
   1.73250008E-02  -1.51086949E-10
   1.74000002E-02  -1.55502541E-10
   1.74749997E-02  -1.59915720E-10
   1.75500009E-02  -1.64318698E-10
   1.76250003E-02  -1.68703107E-10
   1.76999997E-02  -1.73060316E-10
   1.77749991E-02  -1.77381249E-10
   1.78500004E-02  -1.81656412E-10
   1.79249998E-02  -1.85875926E-10
   1.79999992E-02  -1.90029284E-10
   1.80750005E-02  -1.94105745E-10
   1.81499999E-02  -1.98094138E-10
   1.82249993E-02  -2.01982972E-10
   1.83000006E-02  -2.05760117E-10
   1.83750000E-02  -2.09413084E-10
   1.84499994E-02  -2.12929077E-10
   1.85250007E-02  -2.16294663E-10
   1.86000001E-02  -2.19496060E-10
   1.86749995E-02  -2.22519156E-10
   1.87500007E-02  -2.25349378E-10
   1.88250002E-02  -2.27971753E-10
   1.88999996E-02  -2.30370847E-10
   1.89750008E-02  -2.32530967E-10
   1.90500002E-02  -2.34435915E-10
   1.91249996E-02  -2.36069109E-10
   1.92000009E-02  -2.37413672E-10
   1.92750003E-02  -2.38452313E-10
   1.93499997E-02  -2.39167436E-10
   1.94249991E-02  -2.39541137E-10
   1.95000004E-02  -2.39555015E-10
   1.95749998E-02  -2.39190501E-10
   1.96499992E-02  -2.38428804E-10
   1.97250005E-02  -2.37250747E-10
   1.97999999E-02  -2.35636982E-10
   1.98749993E-02  -2.33567943E-10
   1.99500006E-02  -2.31023811E-10
   2.00250000E-02  -2.27984645E-10
   2.00999994E-02  -2.24430349E-10
   2.01750007E-02  -2.20340662E-10
   2.02500001E-02  -2.15695170E-10
   2.03249995E-02  -2.10473430E-10
   2.04000007E-02  -2.04654918E-10
   2.04750001E-02  -1.98219094E-10
   2.05499995E-02  -1.91145516E-10
   2.06250008E-02  -1.83413798E-10
   2.07000002E-02  -1.75003623E-10
   2.07749996E-02  -1.65894742E-10
   2.08500009E-02  -1.56067048E-10
   2.09250003E-02  -1.45500764E-10
   2.09999997E-02  -1.34176253E-10
   2.10749991E-02  -1.22074101E-10
   2.11500004E-02  -1.09175349E-10
   2.12249998E-02  -9.54615068E-11
   2.12999992E-02  -8.09142336E-11
   2.13750005E-02  -6.55157456E-11
   2.14499999E-02  -4.92489660E-11
   2.15249993E-02  -3.20970889E-11
   2.16000006E-02  -1.40440576E-11
   2.16750000E-02   4.92537825E-12
   2.17499994E-02   2.48261342E-11
   2.18250006E-02   4.56722785E-11
   2.19000001E-02   6.74767464E-11
   2.19749995E-02   9.02516950E-11
   2.20500007E-02   1.14008566E-10
   2.21250001E-02   1.38757852E-10
   2.21999995E-02   1.64508754E-10
   2.22750008E-02   1.91269237E-10
   2.23500002E-02   2.19046392E-10
   2.24249996E-02   2.47846133E-10
   2.25000009E-02   2.77672996E-10
   2.25750003E-02   3.08530534E-10
   2.26499997E-02   3.40419998E-10
   2.27249991E-02   3.73341719E-10
   2.28000004E-02   4.07294892E-10
   2.28749998E-02   4.42276521E-10
   2.29499992E-02   4.78282636E-10
   2.30250005E-02   5.15307408E-10
   2.30999999E-02   5.53342872E-10
   2.31749993E-02   5.92378924E-10
   2.32500006E-02   6.32404240E-10
   2.33250000E-02   6.73405498E-10
   2.33999994E-02   7.15367321E-10
   2.34750006E-02   7.58272389E-10
   2.35500000E-02   8.02100886E-10
   2.36249994E-02   8.46831327E-10
   2.37000007E-02   8.92440843E-10
   2.37750001E-02   9.38902733E-10
   2.38499995E-02   9.86187909E-10
   2.39250008E-02   1.03426590E-09
   2.40000002E-02   1.08310394E-09
   2.40749996E-02   1.13266674E-09
   2.41500009E-02   1.18291565E-09
   2.42250003E-02   1.23380983E-09
   2.42999997E-02   1.28530642E-09
   2.43749991E-02   1.33736000E-09
   2.44500004E-02   1.38992273E-09
   2.45249998E-02   1.44294299E-09
   2.45999992E-02   1.49636636E-09
   2.46750005E-02   1.55013735E-09
   2.47499999E-02   1.60419622E-09
   2.48249993E-02   1.65848157E-09
   2.49000005E-02   1.71292935E-09
   2.49749999E-02   1.76747128E-09
   2.50499994E-02   1.82203808E-09
   2.51250006E-02   1.87655580E-09
   2.52000000E-02   1.93094785E-09
   2.52749994E-02   1.98513694E-09
   2.53500007E-02   2.03904138E-09
   2.54250001E-02   2.09257611E-09
   2.54999995E-02   2.14565410E-09
   2.55750008E-02   2.19818763E-09
   2.56500002E-02   2.25008367E-09
   2.57249996E-02   2.30124630E-09
   2.58000009E-02   2.35157871E-09
   2.58750003E-02   2.40098097E-09
   2.59499997E-02   2.44934983E-09
   2.60249991E-02   2.49657894E-09
   2.61000004E-02   2.54256083E-09
   2.61749998E-02   2.58718735E-09
   2.62499992E-02   2.63034483E-09
   2.63250005E-02   2.67191913E-09
   2.63999999E-02   2.71179346E-09
   2.64749993E-02   2.74984902E-09
   2.65500005E-02   2.78596524E-09
   2.66249999E-02   2.82001866E-09
   2.66999993E-02   2.85188539E-09
   2.67750006E-02   2.88143931E-09
   2.68500000E-02   2.90855207E-09
   2.69249994E-02   2.93309288E-09
   2.70000007E-02   2.95493163E-09
   2.70750001E-02   2.97393776E-09
   2.71499995E-02   2.98997738E-09
   2.72250008E-02   3.00291769E-09
   2.73000002E-02   3.01262304E-09
   2.73749996E-02   3.01895797E-09
   2.74500009E-02   3.02178926E-09
   2.75250003E-02   3.02097902E-09
   2.75999997E-02   3.01639025E-09
   2.76749991E-02   3.00788794E-09
   2.77500004E-02   2.99533642E-09
   2.78249998E-02   2.97859892E-09
   2.78999992E-02   2.95754243E-09
   2.79750004E-02   2.93203417E-09
   2.80499998E-02   2.90193958E-09
   2.81249993E-02   2.86712742E-09
   2.82000005E-02   2.82746715E-09
   2.82749999E-02   2.78283130E-09
   2.83499993E-02   2.73309464E-09
   2.84250006E-02   2.67813083E-09
   2.85000000E-02   2.61781730E-09
   2.85749994E-02   2.55203703E-09
   2.86500007E-02   2.48067167E-09
   2.87250001E-02   2.40360709E-09
   2.87999995E-02   2.32073427E-09
   2.88750008E-02   2.23194663E-09
   2.89500002E-02   2.13714157E-09
   2.90249996E-02   2.03622208E-09
   2.91000009E-02   1.92909355E-09
   2.91750003E-02   1.81566606E-09
   2.92499997E-02   1.69585546E-09
   2.93249991E-02   1.56958069E-09
   2.94000003E-02   1.43676959E-09
   2.94749998E-02   1.29735356E-09
   2.95499992E-02   1.15126919E-09
   2.96250004E-02   9.98461092E-10
   2.96999998E-02   8.38878966E-10
   2.97749992E-02   6.72480460E-10
   2.98500005E-02   4.99230157E-10
   2.99249999E-02   3.19099525E-10
   2.99999993E-02   1.32068648E-10
   3.00750006E-02  -6.18752896E-11
   3.01500000E-02  -2.62736111E-10
   3.02249994E-02  -4.70511463E-10
   3.03000007E-02  -6.85190737E-10
   3.03750001E-02  -9.06752062E-10
   3.04499995E-02  -1.13516374E-09
   3.05250008E-02  -1.37038714E-09
   3.06000002E-02  -1.61237390E-09
   3.06749996E-02  -1.86106508E-09
   3.07500008E-02  -2.11639151E-09
   3.08250003E-02  -2.37827313E-09
   3.08999997E-02  -2.64662070E-09
   3.09749991E-02  -2.92133318E-09
   3.10500003E-02  -3.20229976E-09
   3.11249997E-02  -3.48939699E-09
   3.11999992E-02  -3.78249165E-09
   3.12750004E-02  -4.08143874E-09
   3.13500017E-02  -4.38608216E-09
   3.14249992E-02  -4.69625228E-09
   3.15000005E-02  -5.01176833E-09
   3.15750018E-02  -5.33243849E-09
   3.16499993E-02  -5.65805802E-09
   3.17250006E-02  -5.98840932E-09
   3.18000019E-02  -6.32326191E-09
   3.18749994E-02  -6.66237465E-09
   3.19500007E-02  -7.00549396E-09
   3.20249982E-02  -7.35235384E-09
   3.20999995E-02  -7.70267494E-09
   3.21750008E-02  -8.05616551E-09
   3.22499983E-02  -8.41252135E-09
   3.23249996E-02  -8.77142270E-09
   3.24000008E-02  -9.13254183E-09
   3.24749984E-02  -9.49553591E-09
   3.25499997E-02  -9.86005055E-09
   3.26250009E-02  -1.02257189E-08
   3.26999985E-02  -1.05921609E-08
   3.27749997E-02  -1.09589848E-08
   3.28500010E-02  -1.13257874E-08
   3.29249986E-02  -1.16921530E-08
   3.29999998E-02  -1.20576527E-08
   3.30750011E-02  -1.24218484E-08
   3.31499986E-02  -1.27842874E-08
   3.32249999E-02  -1.31445086E-08
   3.33000012E-02  -1.35020395E-08
   3.33749987E-02  -1.38563951E-08
   3.34500000E-02  -1.42070844E-08
   3.35250013E-02  -1.45536028E-08
   3.35999988E-02  -1.48954369E-08
   3.36750001E-02  -1.52320592E-08
   3.37500013E-02  -1.55629394E-08
   3.38249989E-02  -1.58875366E-08
   3.39000002E-02  -1.62053002E-08
   3.39750014E-02  -1.65156759E-08
   3.40499990E-02  -1.68180954E-08
   3.41250002E-02  -1.71119865E-08
   3.42000015E-02  -1.73967720E-08
   3.42749991E-02  -1.76718640E-08
   3.43500003E-02  -1.79366761E-08
   3.44250016E-02  -1.81906081E-08
   3.44999991E-02  -1.84330631E-08
   3.45750004E-02  -1.86634370E-08
   3.46500017E-02  -1.88811224E-08
   3.47249992E-02  -1.90855101E-08
   3.48000005E-02  -1.92759870E-08
   3.48750018E-02  -1.94519423E-08
   3.49499993E-02  -1.96127594E-08
   3.50250006E-02  -1.97578274E-08
   3.51000018E-02  -1.98865298E-08
   3.51749994E-02  -1.99982555E-08
   3.52500007E-02  -2.00923971E-08
   3.53249982E-02  -2.01683470E-08
   3.53999995E-02  -2.02255013E-08
   3.54750007E-02  -2.02632595E-08
   3.55499983E-02  -2.02810355E-08
   3.56249996E-02  -2.02782378E-08
   3.57000008E-02  -2.02542800E-08
   3.57749984E-02  -2.02085921E-08
   3.58499996E-02  -2.01406110E-08
   3.59250009E-02  -2.00497805E-08
   3.59999985E-02  -1.99355590E-08
   3.60749997E-02  -1.97974135E-08
   3.61500010E-02  -1.96348111E-08
   3.62249985E-02  -1.94472509E-08
   3.62999998E-02  -1.92342373E-08
   3.63750011E-02  -1.89952942E-08
   3.64499986E-02  -1.87299491E-08
   3.65249999E-02  -1.84377438E-08
   3.66000012E-02  -1.81182589E-08
   3.66749987E-02  -1.77710877E-08
   3.67500000E-02  -1.73958199E-08
   3.68250012E-02  -1.69920913E-08
   3.68999988E-02  -1.65595555E-08
   3.69750001E-02  -1.60978662E-08
   3.70500013E-02  -1.56067266E-08
   3.71249989E-02  -1.50858455E-08
   3.72000001E-02  -1.45349599E-08
   3.72750014E-02  -1.39538399E-08
   3.73499990E-02  -1.33422651E-08
   3.74250002E-02  -1.27000588E-08
   3.75000015E-02  -1.20270682E-08
   3.75749990E-02  -1.13231664E-08
   3.76500003E-02  -1.05882618E-08
   3.77250016E-02  -9.82227988E-09
   3.77999991E-02  -9.02518060E-09
   3.78750004E-02  -8.19696666E-09
   3.79500017E-02  -7.33767980E-09
   3.80249992E-02  -6.44737419E-09
   3.81000005E-02  -5.52613910E-09
   3.81750017E-02  -4.57410865E-09
   3.82499993E-02  -3.59144359E-09
   3.83250006E-02  -2.57835642E-09
   3.84000018E-02  -1.53508606E-09
   3.84749994E-02  -4.61903793E-10
   3.85500006E-02   6.40871523E-10
   3.86249982E-02   1.77288817E-09
   3.86999995E-02   2.93375879E-09
   3.87750007E-02   4.12305212E-09
   3.88499983E-02   5.34030331E-09
   3.89249995E-02   6.58501742E-09
   3.90000008E-02   7.85663890E-09
   3.90749983E-02   9.15455622E-09
   3.91499996E-02   1.04781508E-08
   3.92250009E-02   1.18267671E-08
   3.92999984E-02   1.31996982E-08
   3.93749997E-02   1.45961945E-08
   3.94500010E-02   1.60154396E-08
   3.95249985E-02   1.74565997E-08
   3.95999998E-02   1.89188167E-08
   3.96750011E-02   2.04011545E-08
   3.97499986E-02   2.19026433E-08
   3.98249999E-02   2.34222970E-08
   3.99000011E-02   2.49590713E-08
   3.99749987E-02   2.65118771E-08
   4.00500000E-02   2.80795938E-08
   4.01250012E-02   2.96610629E-08
   4.01999988E-02   3.12550696E-08
   4.02750000E-02   3.28603740E-08
   4.03500013E-02   3.44757041E-08
   4.04249988E-02   3.60997312E-08
   4.05000001E-02   3.77311018E-08
   4.05750014E-02   3.93684019E-08
   4.06499989E-02   4.10101890E-08
   4.07250002E-02   4.26550031E-08
   4.08000015E-02   4.43013448E-08
   4.08749990E-02   4.59476901E-08
   4.09500003E-02   4.75924473E-08
   4.10250016E-02   4.92340106E-08
   4.10999991E-02   5.08707352E-08
   4.11750004E-02   5.25009547E-08
   4.12500016E-02   5.41229781E-08
   4.13249992E-02   5.57350894E-08
   4.14000005E-02   5.73355230E-08
   4.14750017E-02   5.89224918E-08
   4.15499993E-02   6.04942016E-08
   4.16250005E-02   6.20488123E-08
   4.17000018E-02   6.35845012E-08
   4.17749994E-02   6.50993712E-08
   4.18500006E-02   6.65915394E-08
   4.19249982E-02   6.80591015E-08
   4.19999994E-02   6.95001177E-08
   4.20750007E-02   7.09126624E-08
   4.21499982E-02   7.22947746E-08
   4.22249995E-02   7.36445145E-08
   4.23000008E-02   7.49598996E-08
   4.23749983E-02   7.62389405E-08
   4.24499996E-02   7.74796547E-08
   4.25250009E-02   7.86800456E-08
   4.25999984E-02   7.98381379E-08
   4.26749997E-02   8.09519207E-08
   4.27500010E-02   8.20194117E-08
   4.28249985E-02   8.30386142E-08
   4.28999998E-02   8.40075458E-08
   4.29750010E-02   8.49242170E-08
   4.30499986E-02   8.57866951E-08
   4.31249999E-02   8.65930261E-08
   4.32000011E-02   8.73412702E-08
   4.32749987E-02   8.80295090E-08
   4.33499999E-02   8.86558240E-08
   4.34250012E-02   8.92183394E-08
   4.34999987E-02   8.97151935E-08
   4.35750000E-02   9.01445247E-08
   4.36500013E-02   9.05045496E-08
   4.37249988E-02   9.07934705E-08
   4.38000001E-02   9.10095466E-08
   4.38750014E-02   9.11510583E-08
   4.39499989E-02   9.12163358E-08
   4.40250002E-02   9.12037308E-08
   4.41000015E-02   9.11116445E-08
   4.41749990E-02   9.09385207E-08
   4.42500003E-02   9.06828603E-08
   4.43250015E-02   9.03431712E-08
   4.43999991E-02   8.99180392E-08
   4.44750004E-02   8.94061003E-08
   4.45500016E-02   8.88060327E-08
   4.46249992E-02   8.81165860E-08
   4.47000004E-02   8.73365593E-08
   4.47750017E-02   8.64648229E-08
   4.48499992E-02   8.55002753E-08
   4.49250005E-02   8.44419077E-08
   4.50000018E-02   8.32887821E-08
   4.50749993E-02   8.20400174E-08
   4.51500006E-02   8.06947824E-08
   4.52249981E-02   7.92523593E-08
   4.52999994E-02   7.77120732E-08
   4.53750007E-02   7.60733556E-08
   4.54499982E-02   7.43356665E-08
   4.55249995E-02   7.24985725E-08
   4.56000008E-02   7.05617396E-08
   4.56749983E-02   6.85248764E-08
   4.57499996E-02   6.63877984E-08
   4.58250009E-02   6.41504059E-08
   4.58999984E-02   6.18126634E-08
   4.59749997E-02   5.93746563E-08
   4.60500009E-02   5.68365337E-08
   4.61249985E-02   5.41985372E-08
   4.61999997E-02   5.14610115E-08
   4.62750010E-02   4.86244005E-08
   4.63499986E-02   4.56892337E-08
   4.64249998E-02   4.26561328E-08
   4.65000011E-02   3.95258013E-08
   4.65749986E-02   3.62990562E-08
   4.66499999E-02   3.29768284E-08
   4.67250012E-02   2.95601090E-08
   4.67999987E-02   2.60499942E-08
   4.68750000E-02   2.24476846E-08
   4.69500013E-02   1.87544753E-08
   4.70249988E-02   1.49717678E-08
   4.71000001E-02   1.11010889E-08
   4.71750014E-02   7.14402137E-09
   4.72499989E-02   3.10225290E-09
   4.73250002E-02  -1.02239783E-09
   4.74000014E-02  -5.22804378E-09
   4.74749990E-02  -9.51267598E-09
   4.75500003E-02  -1.38741747E-08
   4.76250015E-02  -1.83103559E-08
   4.76999991E-02  -2.28189734E-08
   4.77750003E-02  -2.73976450E-08
   4.78500016E-02  -3.20438502E-08
   4.79249991E-02  -3.67550044E-08
   4.80000004E-02  -4.15284553E-08
   4.80750017E-02  -4.63614391E-08
   4.81499992E-02  -5.12510816E-08
   4.82250005E-02  -5.61944340E-08
   4.83000018E-02  -6.11884445E-08
   4.83749993E-02  -6.62299655E-08
   4.84500006E-02  -7.13158315E-08
   4.85250019E-02  -7.64427313E-08
   4.85999994E-02  -8.16072827E-08
   4.86750007E-02  -8.68060397E-08
   4.87499982E-02  -9.20354069E-08
   4.88249995E-02  -9.72918031E-08
   4.89000008E-02  -1.02571526E-07
   4.89749983E-02  -1.07870719E-07
   4.90499996E-02  -1.13185585E-07
   4.91250008E-02  -1.18512276E-07
   4.91999984E-02  -1.23846732E-07
   4.92749996E-02  -1.29184912E-07
   4.93500009E-02  -1.34522764E-07
   4.94249985E-02  -1.39856112E-07
   4.94999997E-02  -1.45180707E-07
   4.95750010E-02  -1.50492284E-07
   4.96499985E-02  -1.55786552E-07
   4.97249998E-02  -1.61059106E-07
   4.98000011E-02  -1.66305512E-07
   4.98749986E-02  -1.71521336E-07
   4.99499999E-02  -1.76702059E-07
   5.00250012E-02  -1.81843134E-07
   5.00999987E-02  -1.86940071E-07
   5.01750000E-02  -1.91988306E-07
   5.02500013E-02  -1.96983137E-07
   5.03249988E-02  -2.01919875E-07
   5.04000001E-02  -2.06793956E-07
   5.04750013E-02  -2.11600721E-07
   5.05499989E-02  -2.16335408E-07
   5.06250001E-02  -2.20993357E-07
   5.07000014E-02  -2.25569863E-07
   5.07749990E-02  -2.30060252E-07
   5.08500002E-02  -2.34459819E-07
   5.09250015E-02  -2.38763960E-07
   5.09999990E-02  -2.42967928E-07
   5.10750003E-02  -2.47067078E-07
   5.11500016E-02  -2.51056719E-07
   5.12249991E-02  -2.54932303E-07
   5.13000004E-02  -2.58689312E-07
   5.13750017E-02  -2.62323056E-07
   5.14499992E-02  -2.65828987E-07
   5.15250005E-02  -2.69202701E-07
   5.16000018E-02  -2.72439706E-07
   5.16749993E-02  -2.75535626E-07
   5.17500006E-02  -2.78486112E-07
   5.18250018E-02  -2.81286873E-07
   5.18999994E-02  -2.83933701E-07
   5.19750006E-02  -2.86422306E-07
   5.20499982E-02  -2.88748680E-07
   5.21249995E-02  -2.90908844E-07
   5.22000007E-02  -2.92898733E-07
   5.22749983E-02  -2.94714454E-07
   5.23499995E-02  -2.96352141E-07
   5.24250008E-02  -2.97808100E-07
   5.24999984E-02  -2.99078664E-07
   5.25749996E-02  -3.00160366E-07
   5.26500009E-02  -3.01049766E-07
   5.27249984E-02  -3.01743455E-07
   5.27999997E-02  -3.02238107E-07
   5.28750010E-02  -3.02530623E-07
   5.29499985E-02  -3.02617934E-07
   5.30249998E-02  -3.02497028E-07
   5.31000011E-02  -3.02165034E-07
   5.31749986E-02  -3.01619281E-07
   5.32499999E-02  -3.00857209E-07
   5.33250012E-02  -2.99876262E-07
   5.33999987E-02  -2.98674223E-07
   5.34750000E-02  -2.97248846E-07
   5.35500012E-02  -2.95597914E-07
   5.36249988E-02  -2.93719523E-07
   5.37000000E-02  -2.91611855E-07
   5.37750013E-02  -2.89273288E-07
   5.38499989E-02  -2.86702146E-07
   5.39250001E-02  -2.83897037E-07
   5.40000014E-02  -2.80856824E-07
   5.40749989E-02  -2.77580369E-07
   5.41500002E-02  -2.74066764E-07
   5.42250015E-02  -2.70315070E-07
   5.42999990E-02  -2.66324690E-07
   5.43750003E-02  -2.62095142E-07
   5.44500016E-02  -2.57625999E-07
   5.45249991E-02  -2.52917232E-07
   5.46000004E-02  -2.47968700E-07
   5.46750017E-02  -2.42780516E-07
   5.47499992E-02  -2.37352893E-07
   5.48250005E-02  -2.31686315E-07
   5.49000017E-02  -2.25781520E-07
   5.49749993E-02  -2.19639261E-07
   5.50500005E-02  -2.13260336E-07
   5.51250018E-02  -2.06645936E-07
   5.51999994E-02  -1.99797327E-07
   5.52750006E-02  -1.92715902E-07
   5.53499982E-02  -1.85403309E-07
   5.54249994E-02  -1.77861267E-07
   5.55000007E-02  -1.70091724E-07
   5.55749983E-02  -1.62096839E-07
   5.56499995E-02  -1.53878830E-07
   5.57250008E-02  -1.45440069E-07
   5.57999983E-02  -1.36783214E-07
   5.58749996E-02  -1.27911079E-07
   5.59500009E-02  -1.18826570E-07
   5.60249984E-02  -1.09532699E-07
   5.60999997E-02  -1.00032850E-07
   5.61750010E-02  -9.03304667E-08
   5.62499985E-02  -8.04290465E-08
   5.63249998E-02  -7.03322698E-08
   5.64000010E-02  -6.00440870E-08
   5.64749986E-02  -4.95686336E-08
   5.65499999E-02  -3.89101054E-08
   5.66250011E-02  -2.80727992E-08
   5.66999987E-02  -1.70612324E-08
   5.67749999E-02  -5.88005911E-09
   5.68500012E-02   5.46595169E-09
   5.69249988E-02   1.69718071E-08
   5.70000000E-02   2.86323498E-08
   5.70750013E-02   4.04422806E-08
   5.71499988E-02   5.23961887E-08
   5.72250001E-02   6.44885603E-08
   5.73000014E-02   7.67137536E-08
   5.73749989E-02   8.90659564E-08
   5.74500002E-02   1.01539200E-07
   5.75250015E-02   1.14127339E-07
   5.75999990E-02   1.26824133E-07
   5.76750003E-02   1.39623324E-07
   5.77500015E-02   1.52518481E-07
   5.78249991E-02   1.65502996E-07
   5.79000004E-02   1.78570261E-07
   5.79750016E-02   1.91713440E-07
   5.80499992E-02   2.04925584E-07
   5.81250004E-02   2.18199631E-07
   5.82000017E-02   2.31528418E-07
   5.82749993E-02   2.44904697E-07
   5.83500005E-02   2.58321137E-07
   5.84250018E-02   2.71770290E-07
   5.84999993E-02   2.85244596E-07
   5.85750006E-02   2.98736495E-07
   5.86499982E-02   3.12238257E-07
   5.87249994E-02   3.25742036E-07
   5.88000007E-02   3.39240074E-07
   5.88749982E-02   3.52724385E-07
   5.89499995E-02   3.66186839E-07
   5.90250008E-02   3.79619422E-07
   5.90999983E-02   3.93014062E-07
   5.91749996E-02   4.06362517E-07
   5.92500009E-02   4.19656317E-07
   5.93249984E-02   4.32887134E-07
   5.93999997E-02   4.46046670E-07
   5.94750009E-02   4.59126454E-07
   5.95499985E-02   4.72117961E-07
   5.96249998E-02   4.85012720E-07
   5.97000010E-02   4.97802034E-07
   5.97749986E-02   5.10477378E-07
   5.98499998E-02   5.23030224E-07
   5.99250011E-02   5.35451875E-07
   5.99999987E-02   5.47733578E-07
   6.00749999E-02   5.59866692E-07
   6.01500012E-02   5.71842406E-07
   6.02249987E-02   5.83652024E-07
   6.03000000E-02   5.95286792E-07
   6.03750013E-02   6.06738070E-07
   6.04499988E-02   6.17997159E-07
   6.05250001E-02   6.29055080E-07
   6.06000014E-02   6.39903192E-07
   6.06749989E-02   6.50532911E-07
   6.07500002E-02   6.60935370E-07
   6.08250014E-02   6.71101873E-07
   6.08999990E-02   6.81024062E-07
   6.09750003E-02   6.90693298E-07
   6.10500015E-02   7.00100941E-07
   6.11249991E-02   7.09238407E-07
   6.12000003E-02   7.18097226E-07
   6.12750016E-02   7.26668986E-07
   6.13499992E-02   7.34945331E-07
   6.14250004E-02   7.42917905E-07
   6.15000017E-02   7.50578465E-07
   6.15749992E-02   7.57918883E-07
   6.16500005E-02   7.64930917E-07
   6.17250018E-02   7.71606381E-07
   6.17999993E-02   7.77937089E-07
   6.18750006E-02   7.83915425E-07
   6.19499981E-02   7.89533658E-07
   6.20249994E-02   7.94783773E-07
   6.21000007E-02   7.99658324E-07
   6.21749982E-02   8.04149693E-07
   6.22499995E-02   8.08250491E-07
   6.23250008E-02   8.11953441E-07
   6.23999983E-02   8.15251497E-07
   6.24749996E-02   8.18137266E-07
   6.25500008E-02   8.20603816E-07
   6.26249984E-02   8.22644665E-07
   6.27000034E-02   8.24252822E-07
   6.27750009E-02   8.25421807E-07
   6.28499985E-02   8.26145424E-07
   6.29250035E-02   8.26417306E-07
   6.30000010E-02   8.26231371E-07
   6.30749986E-02   8.25581537E-07
   6.31500036E-02   8.24462006E-07
   6.32250011E-02   8.22867491E-07
   6.32999986E-02   8.20792479E-07
   6.33750036E-02   8.18231683E-07
   6.34500012E-02   8.15179988E-07
   6.35249987E-02   8.11632958E-07
   6.36000037E-02   8.07585536E-07
   6.36750013E-02   8.03033572E-07
   6.37499988E-02   7.97972859E-07
   6.38249964E-02   7.92399305E-07
   6.39000013E-02   7.86309329E-07
   6.39749989E-02   7.79699292E-07
   6.40499964E-02   7.72566011E-07
   6.41250014E-02   7.64906417E-07
   6.41999990E-02   7.56717384E-07