   0.00000000       0.00000000    
   7.50000036E-05   0.00000000    
   1.50000007E-04   0.00000000    
   2.24999996E-04   0.00000000    
   3.00000014E-04   1.58618231E-22
   3.75000003E-04   1.75077159E-21
   4.49999992E-04   1.03732706E-20
   5.24999981E-04   4.39756162E-20
   6.00000028E-04   1.49732150E-19
   6.75000018E-04   4.35510386E-19
   7.50000007E-04   1.12371090E-18
   8.24999996E-04   2.63754148E-18
   8.99999985E-04   5.73233145E-18
   9.74999974E-04   1.16872357E-17
   1.04999996E-03   2.25756515E-17
   1.12499995E-03   4.16357953E-17
   1.20000006E-03   7.37662333E-17
   1.27500005E-03   1.26174293E-16
   1.35000004E-03   2.09209144E-16
   1.42500002E-03   3.37414701E-16
   1.50000001E-03   5.30840948E-16
   1.57500000E-03   8.16654958E-16
   1.64999999E-03   1.23109928E-15
   1.72499998E-03   1.82184399E-15
   1.79999997E-03   2.65078643E-15
   1.87499996E-03   3.79735373E-15
   1.94999995E-03   5.36236442E-15
   2.02500005E-03   7.47250857E-15
   2.09999993E-03   1.02855143E-14
   2.17500003E-03   1.39960641E-14
   2.24999990E-03   1.88425122E-14
   2.32500001E-03   2.51144930E-14
   2.40000011E-03   3.31614720E-14
   2.47499999E-03   4.34023240E-14
   2.55000009E-03   5.63359682E-14
   2.62499996E-03   7.25531695E-14
   2.70000007E-03   9.27495588E-14
   2.77499994E-03   1.17739884E-13
   2.85000005E-03   1.48473668E-13
   2.92499992E-03   1.86052183E-13
   3.00000003E-03   2.31746886E-13
   3.07499990E-03   2.87019350E-13
   3.15000000E-03   3.53542716E-13
   3.22500011E-03   4.33224718E-13
   3.29999998E-03   5.28232189E-13
   3.37500009E-03   6.41017296E-13
   3.44999996E-03   7.74345377E-13
   3.52500007E-03   9.31324245E-13
   3.59999994E-03   1.11543522E-12
   3.67500004E-03   1.33056554E-12
   3.74999992E-03   1.58104259E-12
   3.82500002E-03   1.87166949E-12
   3.89999989E-03   2.20776218E-12
   3.97500023E-03   2.59518709E-12
   4.05000011E-03   3.04040126E-12
   4.12499998E-03   3.55049323E-12
   4.19999985E-03   4.13322414E-12
   4.27500019E-03   4.79706986E-12
   4.35000006E-03   5.55126648E-12
   4.42499993E-03   6.40585111E-12
   4.49999981E-03   7.37170915E-12
   4.57500014E-03   8.46061415E-12
   4.65000002E-03   9.68527775E-12
   4.72499989E-03   1.10593869E-11
   4.80000023E-03   1.25976547E-11
   4.87500010E-03   1.43158532E-11
   4.94999997E-03   1.62308621E-11
   5.02499985E-03   1.83607053E-11
   5.10000018E-03   2.07245852E-11
   5.17500006E-03   2.33429248E-11
   5.24999993E-03   2.62373925E-11
   5.32499980E-03   2.94309369E-11
   5.40000014E-03   3.29478077E-11
   5.47500001E-03   3.68135800E-11
   5.54999989E-03   4.10551766E-11
   5.62500022E-03   4.57008702E-11
   5.70000010E-03   5.07802966E-11
   5.77499997E-03   5.63244520E-11
   5.84999984E-03   6.23656890E-11
   5.92500018E-03   6.89377097E-11
   6.00000005E-03   7.60755348E-11
   6.07499992E-03   8.38154823E-11
   6.14999980E-03   9.21951543E-11
   6.22500014E-03   1.01253332E-10
   6.30000001E-03   1.11029991E-10
   6.37499988E-03   1.21566174E-10
   6.45000022E-03   1.32903938E-10
   6.52500009E-03   1.45086290E-10
   6.59999996E-03   1.58157085E-10
   6.67499984E-03   1.72160855E-10
   6.75000018E-03   1.87142746E-10
   6.82500005E-03   2.03148359E-10
   6.89999992E-03   2.20223617E-10
   6.97499979E-03   2.38414566E-10
   7.05000013E-03   2.57767196E-10
   7.12500000E-03   2.78327250E-10
   7.19999988E-03   3.00140107E-10
   7.27500021E-03   3.23250343E-10
   7.35000009E-03   3.47701645E-10
   7.42499996E-03   3.73536563E-10
   7.49999983E-03   4.00796119E-10
   7.57500017E-03   4.29519642E-10
   7.65000004E-03   4.59744354E-10
   7.72499992E-03   4.91505059E-10
   7.79999979E-03   5.24833843E-10
   7.87500013E-03   5.59759683E-10
   7.95000046E-03   5.96308003E-10
   8.02499987E-03   6.34500397E-10
   8.10000021E-03   6.74354184E-10
   8.17499962E-03   7.15881798E-10
   8.24999996E-03   7.59090624E-10
   8.32500029E-03   8.03982381E-10
   8.39999970E-03   8.50552462E-10
   8.47500004E-03   8.98789876E-10
   8.55000038E-03   9.48676471E-10
   8.62499978E-03   1.00018627E-09
   8.70000012E-03   1.05328524E-09
   8.77500046E-03   1.10793041E-09
   8.84999987E-03   1.16406984E-09
   8.92500021E-03   1.22164134E-09
   8.99999961E-03   1.28057254E-09
   9.07499995E-03   1.34077982E-09
   9.15000029E-03   1.40216827E-09
   9.22499970E-03   1.46463031E-09
   9.30000003E-03   1.52804602E-09
   9.37500037E-03   1.59228164E-09
   9.44999978E-03   1.65718983E-09
   9.52500012E-03   1.72260828E-09
   9.60000046E-03   1.78835968E-09
   9.67499986E-03   1.85425109E-09
   9.75000020E-03   1.92007321E-09
   9.82499961E-03   1.98559924E-09
   9.89999995E-03   2.05058592E-09
   9.97500028E-03   2.11477147E-09
   1.00499997E-02   2.17787566E-09
   1.01250000E-02   2.23959917E-09
   1.02000004E-02   2.29962382E-09
   1.02749998E-02   2.35761077E-09
   1.03500001E-02   2.41320164E-09
   1.04250005E-02   2.46601695E-09
   1.04999999E-02   2.51565657E-09
   1.05750002E-02   2.56169908E-09
   1.06499996E-02   2.60370125E-09
   1.07249999E-02   2.64119815E-09
   1.08000003E-02   2.67370370E-09
   1.08749997E-02   2.70070899E-09
   1.09500000E-02   2.72168355E-09
   1.10250004E-02   2.73607492E-09
   1.10999998E-02   2.74330825E-09
   1.11750001E-02   2.74278755E-09
   1.12500004E-02   2.73389533E-09
   1.13249999E-02   2.71599232E-09
   1.14000002E-02   2.68841860E-09
   1.14749996E-02   2.65049405E-09
   1.15499999E-02   2.60151856E-09
   1.16250003E-02   2.54077270E-09
   1.16999997E-02   2.46751886E-09
   1.17750000E-02   2.38100140E-09
   1.18500004E-02   2.28044761E-09
   1.19249998E-02   2.16506924E-09
   1.20000001E-02   2.03406381E-09
   1.20750004E-02   1.88661531E-09
   1.21499998E-02   1.72189518E-09
   1.22250002E-02   1.53906510E-09
   1.22999996E-02   1.33727729E-09
   1.23749999E-02   1.11567644E-09
   1.24500003E-02   8.73402128E-10
   1.25249997E-02   6.09590212E-10
   1.26000000E-02   3.23375215E-10
   1.26750004E-02   1.38920993E-11
   1.27499998E-02  -3.19720722E-10
   1.28250001E-02  -6.78319401E-10
   1.29000004E-02  -1.06275233E-09
   1.29749998E-02  -1.47385693E-09
   1.30500002E-02  -1.91245642E-09
   1.31249996E-02  -2.37935804E-09
   1.31999999E-02  -2.87534885E-09
   1.32750003E-02  -3.40119266E-09
   1.33499997E-02  -3.95762711E-09
   1.34250000E-02  -4.54535920E-09
   1.35000004E-02  -5.16506304E-09
   1.35749998E-02  -5.81737503E-09
   1.36500001E-02  -6.50288978E-09
   1.37250004E-02  -7.22215709E-09
   1.37999998E-02  -7.97567701E-09
   1.38750002E-02  -8.76389539E-09
   1.39499996E-02  -9.58720037E-09
   1.40249999E-02  -1.04459152E-08
   1.41000003E-02  -1.13402985E-08
   1.41749997E-02  -1.22705348E-08
   1.42500000E-02  -1.32367335E-08
   1.43250003E-02  -1.42389203E-08
   1.43999998E-02  -1.52770347E-08
   1.44750001E-02  -1.63509259E-08
   1.45500004E-02  -1.74603407E-08
   1.46249998E-02  -1.86049292E-08
   1.47000002E-02  -1.97842329E-08
   1.47749996E-02  -2.09976800E-08
   1.48499999E-02  -2.22445760E-08
   1.49250003E-02  -2.35241107E-08
   1.49999997E-02  -2.48353391E-08
   1.50750000E-02  -2.61771866E-08
   1.51500003E-02  -2.75484293E-08
   1.52249997E-02  -2.89477100E-08
   1.53000001E-02  -3.03735135E-08
   1.53750004E-02  -3.18241717E-08
   1.54499998E-02  -3.32978480E-08
   1.55250002E-02  -3.47925528E-08
   1.55999996E-02  -3.63061154E-08
   1.56750008E-02  -3.78361875E-08
   1.57500003E-02  -3.93802502E-08
   1.58249997E-02  -4.09355820E-08
   1.59000009E-02  -4.24992841E-08
   1.59750003E-02  -4.40682584E-08
   1.60499997E-02  -4.56392044E-08
   1.61249992E-02  -4.72086192E-08
   1.62000004E-02  -4.87727974E-08
   1.62749998E-02  -5.03278095E-08
   1.63499992E-02  -5.18695167E-08
   1.64250005E-02  -5.33935705E-08
   1.64999999E-02  -5.48953913E-08
   1.65749993E-02  -5.63701832E-08
   1.66500006E-02  -5.78129189E-08
   1.67250000E-02  -5.92183440E-08
   1.67999994E-02  -6.05809731E-08
   1.68750007E-02  -6.18950935E-08
   1.69500001E-02  -6.31547508E-08
   1.70249995E-02  -6.43537774E-08
   1.71000008E-02  -6.54857502E-08
   1.71750002E-02  -6.65440325E-08
   1.72499996E-02  -6.75217464E-08
   1.73250008E-02  -6.84117865E-08
   1.74000002E-02  -6.92068198E-08
   1.74749997E-02  -6.98992935E-08
   1.75500009E-02  -7.04814198E-08
   1.76250003E-02  -7.09452053E-08
   1.76999997E-02  -7.12824431E-08
   1.77749991E-02  -7.14846848E-08
   1.78500004E-02  -7.15433117E-08
   1.79249998E-02  -7.14494988E-08
   1.79999992E-02  -7.11942150E-08
   1.80750005E-02  -7.07682517E-08
   1.81499999E-02  -7.01622227E-08
   1.82249993E-02  -6.93665640E-08
   1.83000006E-02  -6.83715768E-08
   1.83750000E-02  -6.71673774E-08
   1.84499994E-02  -6.57439685E-08
   1.85250007E-02  -6.40912177E-08
   1.86000001E-02  -6.21988718E-08
   1.86749995E-02  -6.00565642E-08
   1.87500007E-02  -5.76538639E-08
   1.88250002E-02  -5.49802515E-08
   1.88999996E-02  -5.20251469E-08
   1.89750008E-02  -4.87779275E-08
   1.90500002E-02  -4.52279423E-08
   1.91249996E-02  -4.13645367E-08
   1.92000009E-02  -3.71770561E-08
   1.92750003E-02  -3.26548815E-08
   1.93499997E-02  -2.77874292E-08
   1.94249991E-02  -2.25641958E-08
   1.95000004E-02  -1.69747700E-08
   1.95749998E-02  -1.10088401E-08
   1.96499992E-02  -4.65623495E-09
   1.97250005E-02   2.09305639E-09
   1.97999999E-02   9.24885946E-09
   1.98749993E-02   1.68207990E-08
   1.99500006E-02   2.48182594E-08
   2.00250000E-02   3.32503660E-08
   2.00999994E-02   4.21259614E-08
   2.01750007E-02   5.14535543E-08
   2.02500001E-02   6.12413231E-08
   2.03249995E-02   7.14970767E-08
   2.04000007E-02   8.22282118E-08
   2.04750001E-02   9.34416988E-08
   2.05499995E-02   1.05144025E-07
   2.06250008E-02   1.17341180E-07
   2.07000002E-02   1.30038657E-07
   2.07749996E-02   1.43241380E-07
   2.08500009E-02   1.56953661E-07
   2.09250003E-02   1.71179181E-07
   2.09999997E-02   1.85920982E-07
   2.10749991E-02   2.01181408E-07
   2.11500004E-02   2.16962093E-07
   2.12249998E-02   2.33263847E-07
   2.12999992E-02   2.50086742E-07
   2.13750005E-02   2.67429982E-07
   2.14499999E-02   2.85291975E-07
   2.15249993E-02   3.03670134E-07
   2.16000006E-02   3.22561021E-07
   2.16750000E-02   3.41960202E-07
   2.17499994E-02   3.61862220E-07
   2.18250006E-02   3.82260623E-07
   2.19000001E-02   4.03147880E-07
   2.19749995E-02   4.24515349E-07
   2.20500007E-02   4.46353198E-07
   2.21250001E-02   4.68650541E-07
   2.21999995E-02   4.91395213E-07
   2.22750008E-02   5.14573799E-07
   2.23500002E-02   5.38171832E-07
   2.24249996E-02   5.62173284E-07
   2.25000009E-02   5.86560873E-07
   2.25750003E-02   6.11316182E-07
   2.26499997E-02   6.36419202E-07
   2.27249991E-02   6.61848617E-07
   2.28000004E-02   6.87581746E-07
   2.28749998E-02   7.13594318E-07
   2.29499992E-02   7.39860695E-07
   2.30250005E-02   7.66353764E-07
   2.30999999E-02   7.93044876E-07
   2.31749993E-02   8.19903903E-07
   2.32500006E-02   8.46899184E-07
   2.33250000E-02   8.73997521E-07
   2.33999994E-02   9.01164071E-07
   2.34750006E-02   9.28362454E-07
   2.35500000E-02   9.55554810E-07
   2.36249994E-02   9.82701522E-07
   2.37000007E-02   1.00976160E-06
   2.37750001E-02   1.03669231E-06
   2.38499995E-02   1.06344953E-06
   2.39250008E-02   1.08998722E-06
   2.40000002E-02   1.11625798E-06
   2.40749996E-02   1.14221302E-06
   2.41500009E-02   1.16780166E-06
   2.42250003E-02   1.19297181E-06
   2.42999997E-02   1.21766993E-06
   2.43749991E-02   1.24184078E-06
   2.44500004E-02   1.26542773E-06
   2.45249998E-02   1.28837291E-06
   2.45999992E-02   1.31061665E-06
   2.46750005E-02   1.33209812E-06
   2.47499999E-02   1.35275491E-06
   2.48249993E-02   1.37252357E-06
   2.49000005E-02   1.39133920E-06
   2.49749999E-02   1.40913562E-06
   2.50499994E-02   1.42584554E-06
   2.51250006E-02   1.44140040E-06
   2.52000000E-02   1.45573074E-06
   2.52749994E-02   1.46876584E-06
   2.53500007E-02   1.48043409E-06
   2.54250001E-02   1.49066284E-06
   2.54999995E-02   1.49937887E-06
   2.55750008E-02   1.50650806E-06
   2.56500002E-02   1.51197537E-06
   2.57249996E-02   1.51570555E-06
   2.58000009E-02   1.51762242E-06
   2.58750003E-02   1.51764948E-06
   2.59499997E-02   1.51570998E-06
   2.60249991E-02   1.51172662E-06
   2.61000004E-02   1.50562198E-06
   2.61749998E-02   1.49731886E-06
   2.62499992E-02   1.48673962E-06
   2.63250005E-02   1.47380706E-06
   2.63999999E-02   1.45844410E-06
   2.64749993E-02   1.44057401E-06
   2.65500005E-02   1.42012027E-06
   2.66249999E-02   1.39700740E-06
   2.66999993E-02   1.37116001E-06
   2.67750006E-02   1.34250411E-06
   2.68500000E-02   1.31096624E-06
   2.69249994E-02   1.27647388E-06
   2.70000007E-02   1.23895632E-06
   2.70750001E-02   1.19834363E-06
   2.71499995E-02   1.15456749E-06
   2.72250008E-02   1.10756116E-06
   2.73000002E-02   1.05725974E-06
   2.73749996E-02   1.00360000E-06
   2.74500009E-02   9.46521084E-07
   2.75250003E-02   8.85963857E-07
   2.75999997E-02   8.21871822E-07
   2.76749991E-02   7.54190694E-07
   2.77500004E-02   6.82869086E-07
   2.78249998E-02   6.07858112E-07
   2.78999992E-02   5.29111958E-07
   2.79750004E-02   4.46588018E-07
   2.80499998E-02   3.60246560E-07
   2.81249993E-02   2.70051402E-07
   2.82000005E-02   1.75969930E-07
   2.82749999E-02   7.79732190E-08
   2.83499993E-02  -2.39638922E-08
   2.84250006E-02  -1.29862514E-07
   2.85000000E-02  -2.39739620E-07
   2.85749994E-02  -3.53607874E-07
   2.86500007E-02  -4.71475488E-07
   2.87250001E-02  -5.93346215E-07
   2.87999995E-02  -7.19218974E-07
   2.88750008E-02  -8.49087655E-07
   2.89500002E-02  -9.82941287E-07
   2.90249996E-02  -1.12076373E-06
   2.91000009E-02  -1.26253326E-06
   2.91750003E-02  -1.40822306E-06
   2.92499997E-02  -1.55780060E-06
   2.93249991E-02  -1.71122747E-06
   2.94000003E-02  -1.86845978E-06
   2.94749998E-02  -2.02944739E-06
   2.95499992E-02  -2.19413414E-06
   2.96250004E-02  -2.36245774E-06
   2.96999998E-02  -2.53434951E-06
   2.97749992E-02  -2.70973419E-06
   2.98500005E-02  -2.88853039E-06
   2.99249999E-02  -3.07064965E-06
   2.99999993E-02  -3.25599763E-06
   3.00750006E-02  -3.44447221E-06
   3.01500000E-02  -3.63596496E-06
   3.02249994E-02  -3.83036058E-06
   3.03000007E-02  -4.02753676E-06
   3.03750001E-02  -4.22736412E-06
   3.04499995E-02  -4.42970531E-06
   3.05250008E-02  -4.63441756E-06
   3.06000002E-02  -4.84134989E-06
   3.06749996E-02  -5.05034404E-06
   3.07500008E-02  -5.26123449E-06
   3.08250003E-02  -5.47384980E-06
   3.08999997E-02  -5.68800942E-06
   3.09749991E-02  -5.90352693E-06
   3.10500003E-02  -6.12020813E-06
   3.11249997E-02  -6.33785066E-06
   3.11999992E-02  -6.55624763E-06
   3.12750004E-02  -6.77518301E-06
   3.13500017E-02  -6.99443444E-06
   3.14249992E-02  -7.21377273E-06
   3.15000005E-02  -7.43296096E-06
   3.15750018E-02  -7.65175628E-06
   3.16499993E-02  -7.86990768E-06
   3.17250006E-02  -8.08716050E-06
   3.18000019E-02  -8.30325007E-06
   3.18749994E-02  -8.51790719E-06
   3.19500007E-02  -8.73085810E-06
   3.20249982E-02  -8.94181994E-06
   3.20999995E-02  -9.15050441E-06
   3.21750008E-02  -9.35661865E-06
   3.22499983E-02  -9.55986434E-06
   3.23249996E-02  -9.75993589E-06
   3.24000008E-02  -9.95652499E-06
   3.24749984E-02  -1.01493160E-05
   3.25499997E-02  -1.03379907E-05
   3.26250009E-02  -1.05222243E-05
   3.26999985E-02  -1.07016913E-05
   3.27749997E-02  -1.08760587E-05
   3.28500010E-02  -1.10449901E-05
   3.29249986E-02  -1.12081461E-05
   3.29999998E-02  -1.13651859E-05
   3.30750011E-02  -1.15157636E-05
   3.31499986E-02  -1.16595320E-05
   3.32249999E-02  -1.17961417E-05
   3.33000012E-02  -1.19252400E-05
   3.33749987E-02  -1.20464738E-05
   3.34500000E-02  -1.21594885E-05
   3.35250013E-02  -1.22639303E-05
   3.35999988E-02  -1.23594427E-05
   3.36750001E-02  -1.24456710E-05
   3.37500013E-02  -1.25222587E-05
   3.38249989E-02  -1.25888510E-05
   3.39000002E-02  -1.26450950E-05
   3.39750014E-02  -1.26906389E-05
   3.40499990E-02  -1.27251305E-05
   3.41250002E-02  -1.27482253E-05
   3.42000015E-02  -1.27595777E-05
   3.42749991E-02  -1.27588455E-05
   3.43500003E-02  -1.27456906E-05
   3.44250016E-02  -1.27197800E-05
   3.44999991E-02  -1.26807836E-05
   3.45750004E-02  -1.26283794E-05
   3.46500017E-02  -1.25622473E-05
   3.47249992E-02  -1.24820763E-05
   3.48000005E-02  -1.23875579E-05
   3.48750018E-02  -1.22783968E-05
   3.49499993E-02  -1.21542998E-05
   3.50250006E-02  -1.20149825E-05
   3.51000018E-02  -1.18601720E-05
   3.51749994E-02  -1.16896008E-05
   3.52500007E-02  -1.15030134E-05
   3.53249982E-02  -1.13001624E-05
   3.53999995E-02  -1.10808114E-05
   3.54750007E-02  -1.08447357E-05
   3.55499983E-02  -1.05917188E-05
   3.56249996E-02  -1.03215607E-05
   3.57000008E-02  -1.00340703E-05
   3.57749984E-02  -9.72907128E-06
   3.58499996E-02  -9.40639711E-06
   3.59250009E-02  -9.06589958E-06
   3.59999985E-02  -8.70744225E-06
   3.60749997E-02  -8.33090235E-06
   3.61500010E-02  -7.93617437E-06
   3.62249985E-02  -7.52316737E-06
   3.62999998E-02  -7.09180495E-06
   3.63750011E-02  -6.64202889E-06
   3.64499986E-02  -6.17379737E-06
   3.65249999E-02  -5.68708447E-06
   3.66000012E-02  -5.18188381E-06
   3.66749987E-02  -4.65820494E-06
   3.67500000E-02  -4.11607698E-06
   3.68250012E-02  -3.55554653E-06
   3.68999988E-02  -2.97668066E-06
   3.69750001E-02  -2.37956510E-06
   3.70500013E-02  -1.76430422E-06
   3.71249989E-02  -1.13102305E-06
   3.72000001E-02  -4.79866628E-07
   3.72750014E-02   1.88998868E-07
   3.73499990E-02   8.75387400E-07
   3.74250002E-02   1.57909153E-06
   3.75000015E-02   2.29988314E-06
   3.75749990E-02   3.03751312E-06
   3.76500003E-02   3.79170956E-06
   3.77250016E-02   4.56218004E-06
   3.77999991E-02   5.34861010E-06
   3.78750004E-02   6.15066256E-06
   3.79500017E-02   6.96797997E-06
   3.80249992E-02   7.80018127E-06
   3.81000005E-02   8.64686444E-06
   3.81750017E-02   9.50760477E-06
   3.82499993E-02   1.03819548E-05
   3.83250006E-02   1.12694461E-05
   3.84000018E-02   1.21695866E-05
   3.84749994E-02   1.30818626E-05
   3.85500006E-02   1.40057400E-05
   3.86249982E-02   1.49406633E-05
   3.86999995E-02   1.58860512E-05
   3.87750007E-02   1.68413062E-05
   3.88499983E-02   1.78058035E-05
   3.89249995E-02   1.87789028E-05
   3.90000008E-02   1.97599384E-05
   3.90749983E-02   2.07482281E-05
   3.91499996E-02   2.17430661E-05
   3.92250009E-02   2.27437267E-05
   3.92999984E-02   2.37494660E-05
   3.93749997E-02   2.47595217E-05
   3.94500010E-02   2.57731062E-05
   3.95249985E-02   2.67894229E-05
   3.95999998E-02   2.78076513E-05
   3.96750011E-02   2.88269512E-05
   3.97499986E-02   2.98464747E-05
   3.98249999E-02   3.08653471E-05
   3.99000011E-02   3.18826787E-05
   3.99749987E-02   3.28975657E-05
   4.00500000E-02   3.39090911E-05
   4.01250012E-02   3.49163238E-05
   4.01999988E-02   3.59183105E-05
   4.02750000E-02   3.69141017E-05
   4.03500013E-02   3.79027151E-05
   4.04249988E-02   3.88831759E-05
   4.05000001E-02   3.98544798E-05
   4.05750014E-02   4.08156266E-05
   4.06499989E-02   4.17656011E-05
   4.07250002E-02   4.27033774E-05
   4.08000015E-02   4.36279224E-05
   4.08749990E-02   4.45381993E-05
   4.09500003E-02   4.54331603E-05
   4.10250016E-02   4.63117576E-05
   4.10999991E-02   4.71729290E-05
   4.11750004E-02   4.80156159E-05
   4.12500016E-02   4.88387559E-05
   4.13249992E-02   4.96412831E-05
   4.14000005E-02   5.04221316E-05
   4.14750017E-02   5.11802318E-05
   4.15499993E-02   5.19145178E-05
   4.16250005E-02   5.26239273E-05
   4.17000018E-02   5.33073980E-05
   4.17749994E-02   5.39638677E-05
   4.18500006E-02   5.45922849E-05
   4.19249982E-02   5.51916055E-05
   4.19999994E-02   5.57607782E-05
   4.20750007E-02   5.62987698E-05
   4.21499982E-02   5.68045652E-05
   4.22249995E-02   5.72771387E-05
   4.23000008E-02   5.77154824E-05
   4.23749983E-02   5.81186068E-05
   4.24499996E-02   5.84855334E-05
   4.25250009E-02   5.88152870E-05
   4.25999984E-02   5.91069183E-05
   4.26749997E-02   5.93594814E-05
   4.27500010E-02   5.95720594E-05
   4.28249985E-02   5.97437465E-05
   4.28999998E-02   5.98736624E-05
   4.29750010E-02   5.99609302E-05
   4.30499986E-02   6.00047060E-05
   4.31249999E-02   6.00041712E-05
   4.32000011E-02   5.99585146E-05
   4.32749987E-02   5.98669649E-05
   4.33499999E-02   5.97287653E-05
   4.34250012E-02   5.95431811E-05
   4.34999987E-02   5.93095101E-05
   4.35750000E-02   5.90270756E-05
   4.36500013E-02   5.86952301E-05
   4.37249988E-02   5.83133442E-05
   4.38000001E-02   5.78808285E-05
   4.38750014E-02   5.73971265E-05
   4.39499989E-02   5.68616997E-05
   4.40250002E-02   5.62740570E-05
   4.41000015E-02   5.56337254E-05
   4.41749990E-02   5.49402757E-05
   4.42500003E-02   5.41933041E-05
   4.43250015E-02   5.33924467E-05
   4.43999991E-02   5.25373725E-05
   4.44750004E-02   5.16277905E-05
   4.45500016E-02   5.06634424E-05
   4.46249992E-02   4.96441025E-05
   4.47000004E-02   4.85695891E-05
   4.47750017E-02   4.74397602E-05
   4.48499992E-02   4.62545031E-05
   4.49250005E-02   4.50137522E-05
   4.50000018E-02   4.37174822E-05
   4.50749993E-02   4.23657038E-05
   4.51500006E-02   4.09584609E-05
   4.52249981E-02   3.94958552E-05
   4.52999994E-02   3.79780067E-05
   4.53750007E-02   3.64050975E-05
   4.54499982E-02   3.47773384E-05
   4.55249995E-02   3.30949879E-05
   4.56000008E-02   3.13583405E-05
   4.56749983E-02   2.95677364E-05
   4.57499996E-02   2.77235577E-05
   4.58250009E-02   2.58262262E-05
   4.58999984E-02   2.38762059E-05
   4.59749997E-02   2.18740042E-05
   4.60500009E-02   1.98201687E-05
   4.61249985E-02   1.77152888E-05
   4.61999997E-02   1.55599955E-05
   4.62750010E-02   1.33549665E-05
   4.63499986E-02   1.11009131E-05
   4.64249998E-02   8.79859181E-06
   4.65000011E-02   6.44879901E-06
   4.65749986E-02   4.05237370E-06
   4.66499999E-02   1.61019398E-06
   4.67250012E-02  -8.76822583E-07
   4.67999987E-02  -3.40771771E-06
   4.68750000E-02  -5.98149336E-06
   4.69500013E-02  -8.59711417E-06
   4.70249988E-02  -1.12535035E-05
   4.71000001E-02  -1.39495505E-05
   4.71750014E-02  -1.66841037E-05
   4.72499989E-02  -1.94559743E-05
   4.73250002E-02  -2.22639392E-05
   4.74000014E-02  -2.51067377E-05
   4.74749990E-02  -2.79830729E-05
   4.75500003E-02  -3.08916169E-05
   4.76250015E-02  -3.38310019E-05
   4.76999991E-02  -3.67998364E-05
   4.77750003E-02  -3.97966796E-05
   4.78500016E-02  -4.28200838E-05
   4.79249991E-02  -4.58685427E-05
   4.80000004E-02  -4.89405320E-05
   4.80750017E-02  -5.20344984E-05
   4.81499992E-02  -5.51488592E-05
   4.82250005E-02  -5.82820030E-05
   4.83000018E-02  -6.14322926E-05
   4.83749993E-02  -6.45980545E-05
   4.84500006E-02  -6.77775970E-05
   4.85250019E-02  -7.09692104E-05
   4.85999994E-02  -7.41711483E-05
   4.86750007E-02  -7.73816500E-05
   4.87499982E-02  -8.05989184E-05
   4.88249995E-02  -8.38211563E-05
   4.89000008E-02  -8.70465155E-05
   4.89749983E-02  -9.02731626E-05
   4.90499996E-02  -9.34992277E-05
   4.91250008E-02  -9.67228116E-05
   4.91999984E-02  -9.99420299E-05
   4.92749996E-02  -1.03154940E-04
   4.93500009E-02  -1.06359614E-04
   4.94249985E-02  -1.09554094E-04
   4.94999997E-02  -1.12736423E-04
   4.95750010E-02  -1.15904622E-04
   4.96499985E-02  -1.19056705E-04
   4.97249998E-02  -1.22190671E-04
   4.98000011E-02  -1.25304505E-04
   4.98749986E-02  -1.28396190E-04
   4.99499999E-02  -1.31463690E-04
   5.00250012E-02  -1.34504968E-04
   5.00999987E-02  -1.37517971E-04
   5.01750000E-02  -1.40500648E-04
   5.02500013E-02  -1.43450976E-04
   5.03249988E-02  -1.46366860E-04
   5.04000001E-02  -1.49246232E-04
   5.04750013E-02  -1.52087028E-04
   5.05499989E-02  -1.54887210E-04
   5.06250001E-02  -1.57644667E-04
   5.07000014E-02  -1.60357347E-04
   5.07749990E-02  -1.63023171E-04
   5.08500002E-02  -1.65640071E-04
   5.09250015E-02  -1.68205981E-04
   5.09999990E-02  -1.70718791E-04
   5.10750003E-02  -1.73176479E-04
   5.11500016E-02  -1.75576963E-04
   5.12249991E-02  -1.77918191E-04
   5.13000004E-02  -1.80198098E-04
   5.13750017E-02  -1.82414646E-04
   5.14499992E-02  -1.84565783E-04
   5.15250005E-02  -1.86649471E-04
   5.16000018E-02  -1.88663675E-04
   5.16749993E-02  -1.90606384E-04
   5.17500006E-02  -1.92475563E-04
   5.18250018E-02  -1.94269203E-04
   5.18999994E-02  -1.95985311E-04
   5.19750006E-02  -1.97621921E-04
   5.20499982E-02  -1.99177026E-04
   5.21249995E-02  -2.00648647E-04
   5.22000007E-02  -2.02034847E-04
   5.22749983E-02  -2.03333650E-04
   5.23499995E-02  -2.04543147E-04
   5.24250008E-02  -2.05661432E-04
   5.24999984E-02  -2.06686556E-04
   5.25749996E-02  -2.07616642E-04
   5.26500009E-02  -2.08449783E-04
   5.27249984E-02  -2.09184131E-04
   5.27999997E-02  -2.09817823E-04
   5.28750010E-02  -2.10348982E-04
   5.29499985E-02  -2.10775805E-04
   5.30249998E-02  -2.11096485E-04
   5.31000011E-02  -2.11309249E-04
   5.31749986E-02  -2.11412320E-04
   5.32499999E-02  -2.11403894E-04
   5.33250012E-02  -2.11282269E-04
   5.33999987E-02  -2.11045699E-04
   5.34750000E-02  -2.10692495E-04
   5.35500012E-02  -2.10220940E-04
   5.36249988E-02  -2.09629390E-04
   5.37000000E-02  -2.08916186E-04
   5.37750013E-02  -2.08079713E-04
   5.38499989E-02  -2.07118355E-04
   5.39250001E-02  -2.06030541E-04
   5.40000014E-02  -2.04814714E-04
   5.40749989E-02  -2.03469317E-04
   5.41500002E-02  -2.01992851E-04
   5.42250015E-02  -2.00383845E-04
   5.42999990E-02  -1.98640802E-04
   5.43750003E-02  -1.96762296E-04
   5.44500016E-02  -1.94746914E-04
   5.45249991E-02  -1.92593303E-04
   5.46000004E-02  -1.90300081E-04
   5.46750017E-02  -1.87865939E-04
   5.47499992E-02  -1.85289595E-04
   5.48250005E-02  -1.82569769E-04
   5.49000017E-02  -1.79705239E-04
   5.49749993E-02  -1.76694826E-04
   5.50500005E-02  -1.73537366E-04
   5.51250018E-02  -1.70231724E-04
   5.51999994E-02  -1.66776808E-04
   5.52750006E-02  -1.63171600E-04
   5.53499982E-02  -1.59415082E-04
   5.54249994E-02  -1.55506277E-04
   5.55000007E-02  -1.51444270E-04
   5.55749983E-02  -1.47228202E-04
   5.56499995E-02  -1.42857214E-04
   5.57250008E-02  -1.38330535E-04
   5.57999983E-02  -1.33647438E-04
   5.58749996E-02  -1.28807224E-04
   5.59500009E-02  -1.23809252E-04
   5.60249984E-02  -1.18652963E-04
   5.60999997E-02  -1.13337839E-04
   5.61750010E-02  -1.07863401E-04
   5.62499985E-02  -1.02229256E-04
   5.63249998E-02  -9.64350547E-05
   5.64000010E-02  -9.04805202E-05
   5.64749986E-02  -8.43654416E-05
   5.65499999E-02  -7.80896735E-05
   5.66250011E-02  -7.16531504E-05
   5.66999987E-02  -6.50558650E-05
   5.67749999E-02  -5.82978901E-05
   5.68500012E-02  -5.13793784E-05
   5.69249988E-02  -4.43005629E-05
   5.70000000E-02  -3.70617599E-05
   5.70750013E-02  -2.96633661E-05
   5.71499988E-02  -2.21058654E-05
   5.72250001E-02  -1.43898360E-05
   5.73000014E-02  -6.51594382E-06
   5.73749989E-02   1.51505390E-06
   5.74500002E-02   9.70228757E-06
   5.75250015E-02   1.80448042E-05
   5.75999990E-02   2.65415420E-05
   5.76750003E-02   3.51913259E-05
   5.77500015E-02   4.39928772E-05
   5.78249991E-02   5.29448007E-05
   5.79000004E-02   6.20456049E-05
   5.79750016E-02   7.12936599E-05
   5.80499992E-02   8.06872267E-05
   5.81250004E-02   9.02244647E-05
   5.82000017E-02   9.99033655E-05
   5.82749993E-02   1.09721826E-04
   5.83500005E-02   1.19677592E-04
   5.84250018E-02   1.29768276E-04
   5.84999993E-02   1.39991374E-04
   5.85750006E-02   1.50344218E-04
   5.86499982E-02   1.60824013E-04
   5.87249994E-02   1.71427819E-04
   5.88000007E-02   1.82152537E-04
   5.88749982E-02   1.92994936E-04
   5.89499995E-02   2.03951640E-04
   5.90250008E-02   2.15019099E-04
   5.90999983E-02   2.26193617E-04
   5.91749996E-02   2.37471308E-04
   5.92500009E-02   2.48848140E-04
   5.93249984E-02   2.60319939E-04
   5.93999997E-02   2.71882338E-04
   5.94750009E-02   2.83530826E-04
   5.95499985E-02   2.95260688E-04
   5.96249998E-02   3.07067065E-04
   5.97000010E-02   3.18944891E-04
   5.97749986E-02   3.30889015E-04
   5.98499998E-02   3.42893996E-04
   5.99250011E-02   3.54954245E-04
   5.99999987E-02   3.67064058E-04
   6.00749999E-02   3.79217439E-04
   6.01500012E-02   3.91408306E-04
   6.02249987E-02   4.03630314E-04
   6.03000000E-02   4.15877061E-04
   6.03750013E-02   4.28141822E-04
   6.04499988E-02   4.40417789E-04
   6.05250001E-02   4.52697830E-04
   6.06000014E-02   4.64974757E-04
   6.06749989E-02   4.77241207E-04
   6.07500002E-02   4.89489525E-04
   6.08250014E-02   5.01711911E-04
   6.08999990E-02   5.13900479E-04
   6.09750003E-02   5.26047079E-04
   6.10500015E-02   5.38143271E-04
   6.11249991E-02   5.50180615E-04
   6.12000003E-02   5.62150439E-04
   6.12750016E-02   5.74043894E-04
   6.13499992E-02   5.85851900E-04
   6.14250004E-02   5.97565260E-04
   6.15000017E-02   6.09174545E-04
   6.15749992E-02   6.20670209E-04
   6.16500005E-02   6.32042531E-04
   6.17250018E-02   6.43281615E-04
   6.17999993E-02   6.54377509E-04
   6.18750006E-02   6.65319909E-04
   6.19499981E-02   6.76098512E-04
   6.20249994E-02   6.86702901E-04
   6.21000007E-02   6.97122246E-04
   6.21749982E-02   7.07345956E-04
   6.22499995E-02   7.17362971E-04
   6.23250008E-02   7.27162347E-04
   6.23999983E-02   7.36732851E-04
   6.24749996E-02   7.46063306E-04
   6.25500008E-02   7.55142304E-04
   6.26249984E-02   7.63958320E-04
   6.27000034E-02   7.72499712E-04
   6.27750009E-02   7.80754955E-04
   6.28499985E-02   7.88712176E-04
   6.29250035E-02   7.96359556E-04
   6.30000010E-02   8.03685223E-04
   6.30749986E-02   8.10677069E-04
   6.31500036E-02   8.17323162E-04
   6.32250011E-02   8.23611568E-04
   6.32999986E-02   8.29530123E-04
   6.33750036E-02   8.35066661E-04
   6.34500012E-02   8.40209075E-04
   6.35249987E-02   8.44945142E-04
   6.36000037E-02   8.49262811E-04
   6.36750013E-02   8.53150035E-04
   6.37499988E-02   8.56594590E-04
   6.38249964E-02   8.59584485E-04
   6.39000013E-02   8.62107612E-04
   6.39749989E-02   8.64152040E-04
   6.40499964E-02   8.65705893E-04
   6.41250014E-02   8.66757415E-04
   6.41999990E-02   8.67294788E-04