   0.00000000       0.00000000    
   7.50000036E-05   0.00000000    
   1.50000007E-04   0.00000000    
   2.24999996E-04   0.00000000    
   3.00000014E-04  -2.44491219E-22
   3.75000003E-04  -2.50483759E-21
   4.49999992E-04  -1.38591236E-20
   5.24999981E-04  -5.52068031E-20
   6.00000028E-04  -1.77638510E-19
   6.75000018E-04  -4.90762328E-19
   7.50000007E-04  -1.20815860E-18
   8.24999996E-04  -2.71628701E-18
   8.99999985E-04  -5.67439655E-18
   9.74999974E-04  -1.11542667E-17
   1.04999996E-03  -2.08299497E-17
   1.12499995E-03  -3.72290800E-17
   1.20000006E-03  -6.40586467E-17
   1.27500005E-03  -1.06619644E-16
   1.35000004E-03  -1.72326378E-16
   1.42500002E-03  -2.71347640E-16
   1.50000001E-03  -4.17388349E-16
   1.57500000E-03  -6.28631325E-16
   1.64999999E-03  -9.28861095E-16
   1.72499998E-03  -1.34879134E-15
   1.79999997E-03  -1.92762019E-15
   1.87499996E-03  -2.71483864E-15
   1.94999995E-03  -3.77231544E-15
   2.02500005E-03  -5.17668717E-15
   2.09999993E-03  -7.02208143E-15
   2.17500003E-03  -9.42319580E-15
   2.24999990E-03  -1.25187734E-14
   2.32500001E-03  -1.64754769E-14
   2.40000011E-03  -2.14922227E-14
   2.47499999E-03  -2.78049830E-14
   2.55000009E-03  -3.56920914E-14
   2.62499996E-03  -4.54800585E-14
   2.70000007E-03  -5.75499663E-14
   2.77499994E-03  -7.23444267E-14
   2.85000005E-03  -9.03751561E-14
   2.92499992E-03  -1.12231140E-13
   3.00000003E-03  -1.38587492E-13
   3.07499990E-03  -1.70214943E-13
   3.15000000E-03  -2.07990038E-13
   3.22500011E-03  -2.52906040E-13
   3.29999998E-03  -3.06084449E-13
   3.37500009E-03  -3.68787303E-13
   3.44999996E-03  -4.42430272E-13
   3.52500007E-03  -5.28596264E-13
   3.59999994E-03  -6.29049981E-13
   3.67500004E-03  -7.45752960E-13
   3.74999992E-03  -8.80879571E-13
   3.82500002E-03  -1.03683338E-12
   3.89999989E-03  -1.21626450E-12
   3.97500023E-03  -1.42208717E-12
   4.05000011E-03  -1.65749814E-12
   4.12499998E-03  -1.92599560E-12
   4.19999985E-03  -2.23139866E-12
   4.27500019E-03  -2.57786826E-12
   4.35000006E-03  -2.96992530E-12
   4.42499993E-03  -3.41247321E-12
   4.49999981E-03  -3.91081785E-12
   4.57500014E-03  -4.47068858E-12
   4.65000002E-03  -5.09826036E-12
   4.72499989E-03  -5.80017414E-12
   4.80000023E-03  -6.58355835E-12
   4.87500010E-03  -7.45604967E-12
   4.94999997E-03  -8.42581126E-12
   5.02499985E-03  -9.50155926E-12
   5.10000018E-03  -1.06925762E-11
   5.17500006E-03  -1.20087317E-11
   5.24999993E-03  -1.34605027E-11
   5.32499980E-03  -1.50589870E-11
   5.40000014E-03  -1.68159219E-11
   5.47500001E-03  -1.87437010E-11
   5.54999989E-03  -2.08553817E-11
   5.62500022E-03  -2.31646976E-11
   5.70000010E-03  -2.56860800E-11
   5.77499997E-03  -2.84346470E-11
   5.84999984E-03  -3.14262193E-11
   5.92500018E-03  -3.46773270E-11
   6.00000005E-03  -3.82052064E-11
   6.07499992E-03  -4.20278014E-11
   6.14999980E-03  -4.61637430E-11
   6.22500014E-03  -5.06323629E-11
   6.30000001E-03  -5.54536694E-11
   6.37499988E-03  -6.06483405E-11
   6.45000022E-03  -6.62376959E-11
   6.52500009E-03  -7.22436833E-11
   6.59999996E-03  -7.86888471E-11
   6.67499984E-03  -8.55962801E-11
   6.75000018E-03  -9.29896229E-11
   6.82500005E-03  -1.00892995E-10
   6.89999992E-03  -1.09330968E-10
   6.97499979E-03  -1.18328500E-10
   7.05000013E-03  -1.27910876E-10
   7.12500000E-03  -1.38103695E-10
   7.19999988E-03  -1.48932700E-10
   7.27500021E-03  -1.60423799E-10
   7.35000009E-03  -1.72602960E-10
   7.42499996E-03  -1.85496105E-10
   7.49999983E-03  -1.99129074E-10
   7.57500017E-03  -2.13527418E-10
   7.65000004E-03  -2.28716435E-10
   7.72499992E-03  -2.44720938E-10
   7.79999979E-03  -2.61565158E-10
   7.87500013E-03  -2.79272744E-10
   7.95000046E-03  -2.97866426E-10
   8.02499987E-03  -3.17368076E-10
   8.10000021E-03  -3.37798456E-10
   8.17499962E-03  -3.59176994E-10
   8.24999996E-03  -3.81521842E-10
   8.32500029E-03  -4.04849487E-10
   8.39999970E-03  -4.29174779E-10
   8.47500004E-03  -4.54510568E-10
   8.55000038E-03  -4.80867623E-10
   8.62499978E-03  -5.08254439E-10
   8.70000012E-03  -5.36677036E-10
   8.77500046E-03  -5.66138803E-10
   8.84999987E-03  -5.96640182E-10
   8.92500021E-03  -6.28178454E-10
   8.99999961E-03  -6.60747679E-10
   9.07499995E-03  -6.94338365E-10
   9.15000029E-03  -7.28937188E-10
   9.22499970E-03  -7.64526997E-10
   9.30000003E-03  -8.01086308E-10
   9.37500037E-03  -8.38589087E-10
   9.44999978E-03  -8.77004969E-10
   9.52500012E-03  -9.16298371E-10
   9.60000046E-03  -9.56428603E-10
   9.67499986E-03  -9.97349536E-10
   9.75000020E-03  -1.03900955E-09
   9.82499961E-03  -1.08135123E-09
   9.89999995E-03  -1.12431064E-09
   9.97500028E-03  -1.16781806E-09
   1.00499997E-02  -1.21179711E-09
   1.01250000E-02  -1.25616428E-09
   1.02000004E-02  -1.30082933E-09
   1.02749998E-02  -1.34569478E-09
   1.03500001E-02  -1.39065581E-09
   1.04250005E-02  -1.43559997E-09
   1.04999999E-02  -1.48040702E-09
   1.05750002E-02  -1.52494861E-09
   1.06499996E-02  -1.56908864E-09
   1.07249999E-02  -1.61268232E-09
   1.08000003E-02  -1.65557690E-09
   1.08749997E-02  -1.69761050E-09
   1.09500000E-02  -1.73861314E-09
   1.10250004E-02  -1.77840576E-09
   1.10999998E-02  -1.81680060E-09
   1.11750001E-02  -1.85360127E-09
   1.12500004E-02  -1.88860216E-09
   1.13249999E-02  -1.92158911E-09
   1.14000002E-02  -1.95233851E-09
   1.14749996E-02  -1.98061856E-09
   1.15499999E-02  -2.00618833E-09
   1.16250003E-02  -2.02879868E-09
   1.16999997E-02  -2.04819095E-09
   1.17750000E-02  -2.06409867E-09
   1.18500004E-02  -2.07624740E-09
   1.19249998E-02  -2.08435424E-09
   1.20000001E-02  -2.08812834E-09
   1.20750004E-02  -2.08727169E-09
   1.21499998E-02  -2.08147899E-09
   1.22250002E-02  -2.07043849E-09
   1.22999996E-02  -2.05383155E-09
   1.23749999E-02  -2.03133332E-09
   1.24500003E-02  -2.00261363E-09
   1.25249997E-02  -1.96733763E-09
   1.26000000E-02  -1.92516580E-09
   1.26750004E-02  -1.87575422E-09
   1.27499998E-02  -1.81875626E-09
   1.28250001E-02  -1.75382264E-09
   1.29000004E-02  -1.68060221E-09
   1.29749998E-02  -1.59874247E-09
   1.30500002E-02  -1.50789115E-09
   1.31249996E-02  -1.40769629E-09
   1.31999999E-02  -1.29780764E-09
   1.32750003E-02  -1.17787702E-09
   1.33499997E-02  -1.04756004E-09
   1.34250000E-02  -9.06517028E-10
   1.35000004E-02  -7.54413643E-10
   1.35749998E-02  -5.90922533E-10
   1.36500001E-02  -4.15724233E-10
   1.37250004E-02  -2.28508643E-10
   1.37999998E-02  -2.89761635E-11
   1.38750002E-02   1.83161000E-10
   1.39499996E-02   4.08177409E-10
   1.40249999E-02   6.46332876E-10
   1.41000003E-02   8.97871111E-10
   1.41749997E-02   1.16301813E-09
   1.42500000E-02   1.44198076E-09
   1.43250003E-02   1.73494485E-09
   1.43999998E-02   2.04207429E-09
   1.44750001E-02   2.36350828E-09
   1.45500004E-02   2.69936140E-09
   1.46249998E-02   3.04971937E-09
   1.47000002E-02   3.41463924E-09
   1.47749996E-02   3.79414677E-09
   1.48499999E-02   4.18823554E-09
   1.49250003E-02   4.59686289E-09
   1.49999997E-02   5.01995201E-09
   1.50750000E-02   5.45738565E-09
   1.51500003E-02   5.90900706E-09
   1.52249997E-02   6.37461772E-09
   1.53000001E-02   6.85397472E-09
   1.53750004E-02   7.34678851E-09
   1.54499998E-02   7.85272203E-09
   1.55250002E-02   8.37138980E-09
   1.55999996E-02   8.90235263E-09
   1.56750008E-02   9.44511935E-09
   1.57500003E-02   9.99914462E-09
   1.58249997E-02   1.05638227E-08
   1.59000009E-02   1.11384919E-08
   1.59750003E-02   1.17224284E-08
   1.60499997E-02   1.23148478E-08
   1.61249992E-02   1.29148985E-08
   1.62000004E-02   1.35216673E-08
   1.62749998E-02   1.41341721E-08
   1.63499992E-02   1.47513628E-08
   1.64250005E-02   1.53721178E-08
   1.64999999E-02   1.59952425E-08
   1.65749993E-02   1.66194773E-08
   1.66500006E-02   1.72434813E-08
   1.67250000E-02   1.78658439E-08
   1.67999994E-02   1.84850730E-08
   1.68750007E-02   1.90996055E-08
   1.69500001E-02   1.97077981E-08
   1.70249995E-02   2.03079313E-08
   1.71000008E-02   2.08982041E-08
   1.71750002E-02   2.14767422E-08
   1.72499996E-02   2.20415846E-08
   1.73250008E-02   2.25906991E-08
   1.74000002E-02   2.31219683E-08
   1.74749997E-02   2.36332003E-08
   1.75500009E-02   2.41221230E-08
   1.76250003E-02   2.45863863E-08
   1.76999997E-02   2.50235654E-08
   1.77749991E-02   2.54311558E-08
   1.78500004E-02   2.58065818E-08
   1.79249998E-02   2.61471911E-08
   1.79999992E-02   2.64502642E-08
   1.80750005E-02   2.67130069E-08
   1.81499999E-02   2.69325575E-08
   1.82249993E-02   2.71059957E-08
   1.83000006E-02   2.72303300E-08
   1.83750000E-02   2.73025105E-08
   1.84499994E-02   2.73194303E-08
   1.85250007E-02   2.72779275E-08
   1.86000001E-02   2.71747886E-08
   1.86749995E-02   2.70067542E-08
   1.87500007E-02   2.67705236E-08
   1.88250002E-02   2.64627538E-08
   1.88999996E-02   2.60800679E-08
   1.89750008E-02   2.56190589E-08
   1.90500002E-02   2.50762984E-08
   1.91249996E-02   2.44483349E-08
   1.92000009E-02   2.37317064E-08
   1.92750003E-02   2.29229418E-08
   1.93499997E-02   2.20185683E-08
   1.94249991E-02   2.10151168E-08
   1.95000004E-02   1.99091303E-08
   1.95749998E-02   1.86971718E-08
   1.96499992E-02   1.73758270E-08
   1.97250005E-02   1.59417191E-08
   1.97999999E-02   1.43915093E-08
   1.98749993E-02   1.27219071E-08
   1.99500006E-02   1.09296820E-08
   2.00250000E-02   9.01167052E-09
   2.00999994E-02   6.96478031E-09
   2.01750007E-02   4.78600537E-09
   2.02500001E-02   2.47243404E-09
   2.03249995E-02   2.12570812E-11
   2.04000007E-02  -2.57022337E-09
   2.04750001E-02  -5.30457944E-09
   2.05499995E-02  -8.18425328E-09
   2.06250008E-02  -1.12115410E-08
   2.07000002E-02  -1.43885854E-08
   2.07749996E-02  -1.77173618E-08
   2.08500009E-02  -2.11996714E-08
   2.09250003E-02  -2.48371315E-08
   2.09999997E-02  -2.86311543E-08
   2.10749991E-02  -3.25829461E-08
   2.11500004E-02  -3.66934962E-08
   2.12249998E-02  -4.09635454E-08
   2.12999992E-02  -4.53936124E-08
   2.13750005E-02  -4.99839423E-08
   2.14499999E-02  -5.47345138E-08
   2.15249993E-02  -5.96450249E-08
   2.16000006E-02  -6.47148894E-08
   2.16750000E-02  -6.99432121E-08
   2.17499994E-02  -7.53287779E-08
   2.18250006E-02  -8.08700520E-08
   2.19000001E-02  -8.65651586E-08
   2.19749995E-02  -9.24118737E-08
   2.20500007E-02  -9.84075896E-08
   2.21250001E-02  -1.04549372E-07
   2.21999995E-02  -1.10833867E-07
   2.22750008E-02  -1.17257336E-07
   2.23500002E-02  -1.23815610E-07
   2.24249996E-02  -1.30504162E-07
   2.25000009E-02  -1.37317969E-07
   2.25750003E-02  -1.44251629E-07
   2.26499997E-02  -1.51299275E-07
   2.27249991E-02  -1.58454583E-07
   2.28000004E-02  -1.65710745E-07
   2.28749998E-02  -1.73060528E-07
   2.29499992E-02  -1.80496187E-07
   2.30250005E-02  -1.88009494E-07
   2.30999999E-02  -1.95591753E-07
   2.31749993E-02  -2.03233725E-07
   2.32500006E-02  -2.10925705E-07
   2.33250000E-02  -2.18657462E-07
   2.33999994E-02  -2.26418265E-07
   2.34750006E-02  -2.34196861E-07
   2.35500000E-02  -2.41981468E-07
   2.36249994E-02  -2.49759779E-07
   2.37000007E-02  -2.57518963E-07
   2.37750001E-02  -2.65245660E-07
   2.38499995E-02  -2.72926059E-07
   2.39250008E-02  -2.80545692E-07
   2.40000002E-02  -2.88089637E-07
   2.40749996E-02  -2.95542520E-07
   2.41500009E-02  -3.02888367E-07
   2.42250003E-02  -3.10110693E-07
   2.42999997E-02  -3.17192558E-07
   2.43749991E-02  -3.24116513E-07
   2.44500004E-02  -3.30864566E-07
   2.45249998E-02  -3.37418300E-07
   2.45999992E-02  -3.43758842E-07
   2.46750005E-02  -3.49866809E-07
   2.47499999E-02  -3.55722392E-07
   2.48249993E-02  -3.61305354E-07
   2.49000005E-02  -3.66595060E-07
   2.49749999E-02  -3.71570422E-07
   2.50499994E-02  -3.76210039E-07
   2.51250006E-02  -3.80492054E-07
   2.52000000E-02  -3.84394298E-07
   2.52749994E-02  -3.87894346E-07
   2.53500007E-02  -3.90969376E-07
   2.54250001E-02  -3.93596366E-07
   2.54999995E-02  -3.95751925E-07
   2.55750008E-02  -3.97412549E-07
   2.56500002E-02  -3.98554477E-07
   2.57249996E-02  -3.99153777E-07
   2.58000009E-02  -3.99186348E-07
   2.58750003E-02  -3.98628032E-07
   2.59499997E-02  -3.97454556E-07
   2.60249991E-02  -3.95641649E-07
   2.61000004E-02  -3.93164953E-07
   2.61749998E-02  -3.90000196E-07
   2.62499992E-02  -3.86123162E-07
   2.63250005E-02  -3.81509693E-07
   2.63999999E-02  -3.76135830E-07
   2.64749993E-02  -3.69977755E-07
   2.65500005E-02  -3.63011907E-07
   2.66249999E-02  -3.55214979E-07
   2.66999993E-02  -3.46564008E-07
   2.67750006E-02  -3.37036369E-07
   2.68500000E-02  -3.26609836E-07
   2.69249994E-02  -3.15262639E-07
   2.70000007E-02  -3.02973518E-07
   2.70750001E-02  -2.89721783E-07
   2.71499995E-02  -2.75487338E-07
   2.72250008E-02  -2.60250744E-07
   2.73000002E-02  -2.43993298E-07
   2.73749996E-02  -2.26696997E-07
   2.74500009E-02  -2.08344716E-07
   2.75250003E-02  -1.88920168E-07
   2.75999997E-02  -1.68408008E-07
   2.76749991E-02  -1.46793838E-07
   2.77500004E-02  -1.24064343E-07
   2.78249998E-02  -1.00207281E-07
   2.78999992E-02  -7.52115454E-08
   2.79750004E-02  -4.90672676E-08
   2.80499998E-02  -2.17658229E-08
   2.81249993E-02   6.70010047E-09
   2.82000005E-02   3.63364201E-08
   2.82749999E-02   6.71476315E-08
   2.83499993E-02   9.91367415E-08
   2.84250006E-02   1.32305217E-07
   2.85000000E-02   1.66652882E-07
   2.85749994E-02   2.02177944E-07
   2.86500007E-02   2.38876879E-07
   2.87250001E-02   2.76744430E-07
   2.87999995E-02   3.15773491E-07
   2.88750008E-02   3.55955081E-07
   2.89500002E-02   3.97278257E-07
   2.90249996E-02   4.39730229E-07
   2.91000009E-02   4.83296049E-07
   2.91750003E-02   5.27958832E-07
   2.92499997E-02   5.73699481E-07
   2.93249991E-02   6.20496678E-07
   2.94000003E-02   6.68327061E-07
   2.94749998E-02   7.17164994E-07
   2.95499992E-02   7.66982396E-07
   2.96250004E-02   8.17749083E-07
   2.96999998E-02   8.69432256E-07
   2.97749992E-02   9.21997014E-07
   2.98500005E-02   9.75405783E-07
   2.99249999E-02   1.02961883E-06
   2.99999993E-02   1.08459358E-06
   3.00750006E-02   1.14028535E-06
   3.01500000E-02   1.19664651E-06
   3.02249994E-02   1.25362726E-06
   3.03000007E-02   1.31117497E-06
   3.03750001E-02   1.36923495E-06
   3.04499995E-02   1.42774934E-06
   3.05250008E-02   1.48665788E-06
   3.06000002E-02   1.54589793E-06
   3.06749996E-02   1.60540401E-06
   3.07500008E-02   1.66510824E-06
   3.08250003E-02   1.72494038E-06
   3.08999997E-02   1.78482719E-06
   3.09749991E-02   1.84469332E-06
   3.10500003E-02   1.90446065E-06
   3.11249997E-02   1.96404858E-06
   3.11999992E-02   2.02337401E-06
   3.12750004E-02   2.08235201E-06
   3.13500017E-02   2.14089437E-06
   3.14249992E-02   2.19891103E-06
   3.15000005E-02   2.25630970E-06
   3.15750018E-02   2.31299555E-06
   3.16499993E-02   2.36887217E-06
   3.17250006E-02   2.42384067E-06
   3.18000019E-02   2.47779985E-06
   3.18749994E-02   2.53064673E-06
   3.19500007E-02   2.58227624E-06
   3.20249982E-02   2.63258198E-06
   3.20999995E-02   2.68145527E-06
   3.21750008E-02   2.72878651E-06
   3.22499983E-02   2.77446361E-06
   3.23249996E-02   2.81837356E-06
   3.24000008E-02   2.86040176E-06
   3.24749984E-02   2.90043249E-06
   3.25499997E-02   2.93834887E-06
   3.26250009E-02   2.97403312E-06
   3.26999985E-02   3.00736656E-06
   3.27749997E-02   3.03822935E-06
   3.28500010E-02   3.06650145E-06
   3.29249986E-02   3.09206234E-06
   3.29999998E-02   3.11479084E-06
   3.30750011E-02   3.13456530E-06
   3.31499986E-02   3.15126499E-06
   3.32249999E-02   3.16476849E-06
   3.33000012E-02   3.17495460E-06
   3.33749987E-02   3.18170328E-06
   3.34500000E-02   3.18489401E-06
   3.35250013E-02   3.18440766E-06
   3.35999988E-02   3.18012644E-06
   3.36750001E-02   3.17193280E-06
   3.37500013E-02   3.15971056E-06
   3.38249989E-02   3.14334602E-06
   3.39000002E-02   3.12272596E-06
   3.39750014E-02   3.09773941E-06
   3.40499990E-02   3.06827792E-06
   3.41250002E-02   3.03423440E-06
   3.42000015E-02   2.99550493E-06
   3.42749991E-02   2.95198811E-06
   3.43500003E-02   2.90358480E-06
   3.44250016E-02   2.85019973E-06
   3.44999991E-02   2.79174037E-06
   3.45750004E-02   2.72811781E-06
   3.46500017E-02   2.65924677E-06
   3.47249992E-02   2.58504633E-06
   3.48000005E-02   2.50543872E-06
   3.48750018E-02   2.42035139E-06
   3.49499993E-02   2.32971570E-06
   3.50250006E-02   2.23346797E-06
   3.51000018E-02   2.13154954E-06
   3.51749994E-02   2.02390675E-06
   3.52500007E-02   1.91049116E-06
   3.53249982E-02   1.79126050E-06
   3.53999995E-02   1.66617758E-06
   3.54750007E-02   1.53521148E-06
   3.55499983E-02   1.39833753E-06
   3.56249996E-02   1.25553743E-06
   3.57000008E-02   1.10679935E-06
   3.57749984E-02   9.52118114E-07
   3.58499996E-02   7.91495779E-07
   3.59250009E-02   6.24941379E-07
   3.59999985E-02   4.52471312E-07
   3.60749997E-02   2.74109482E-07
   3.61500010E-02   8.98874220E-08
   3.62249985E-02  -1.00155376E-07
   3.62999998E-02  -2.95971603E-07
   3.63750011E-02  -4.97505710E-07
   3.64499986E-02  -7.04693718E-07
   3.65249999E-02  -9.17463410E-07
   3.66000012E-02  -1.13573390E-06
   3.66749987E-02  -1.35941548E-06
   3.67500000E-02  -1.58840987E-06
   3.68250012E-02  -1.82260965E-06
   3.68999988E-02  -2.06189816E-06
   3.69750001E-02  -2.30615001E-06
   3.70500013E-02  -2.55523037E-06
   3.71249989E-02  -2.80899508E-06
   3.72000001E-02  -3.06729066E-06
   3.72750014E-02  -3.32995432E-06
   3.73499990E-02  -3.59681349E-06
   3.74250002E-02  -3.86768579E-06
   3.75000015E-02  -4.14238048E-06
   3.75749990E-02  -4.42069631E-06
   3.76500003E-02  -4.70242185E-06
   3.77250016E-02  -4.98733698E-06
   3.77999991E-02  -5.27521252E-06
   3.78750004E-02  -5.56580881E-06
   3.79500017E-02  -5.85887710E-06
   3.80249992E-02  -6.15415956E-06
   3.81000005E-02  -6.45138789E-06
   3.81750017E-02  -6.75028605E-06
   3.82499993E-02  -7.05056709E-06
   3.83250006E-02  -7.35193544E-06
   3.84000018E-02  -7.65408822E-06
   3.84749994E-02  -7.95671076E-06
   3.85500006E-02  -8.25948337E-06
   3.86249982E-02  -8.56207498E-06
   3.86999995E-02  -8.86414637E-06
   3.87750007E-02  -9.16535191E-06
   3.88499983E-02  -9.46533601E-06
   3.89249995E-02  -9.76373667E-06
   3.90000008E-02  -1.00601837E-05
   3.90749983E-02  -1.03542998E-05
   3.91499996E-02  -1.06457010E-05
   3.92250009E-02  -1.09339971E-05
   3.92999984E-02  -1.12187890E-05
   3.93749997E-02  -1.14996737E-05
   3.94500010E-02  -1.17762420E-05
   3.95249985E-02  -1.20480800E-05
   3.95999998E-02  -1.23147656E-05
   3.96750011E-02  -1.25758743E-05
   3.97499986E-02  -1.28309775E-05
   3.98249999E-02  -1.30796407E-05
   3.99000011E-02  -1.33214262E-05
   3.99749987E-02  -1.35558948E-05
   4.00500000E-02  -1.37826019E-05
   4.01250012E-02  -1.40011043E-05
   4.01999988E-02  -1.42109529E-05
   4.02750000E-02  -1.44116975E-05
   4.03500013E-02  -1.46028897E-05
   4.04249988E-02  -1.47840783E-05
   4.05000001E-02  -1.49548123E-05
   4.05750014E-02  -1.51146405E-05
   4.06499989E-02  -1.52631146E-05
   4.07250002E-02  -1.53997880E-05
   4.08000015E-02  -1.55242142E-05
   4.08749990E-02  -1.56359492E-05
   4.09500003E-02  -1.57345530E-05
   4.10250016E-02  -1.58195871E-05
   4.10999991E-02  -1.58906223E-05
   4.11750004E-02  -1.59472293E-05
   4.12500016E-02  -1.59889896E-05
   4.13249992E-02  -1.60154832E-05
   4.14000005E-02  -1.60263025E-05
   4.14750017E-02  -1.60210457E-05
   4.15499993E-02  -1.59993178E-05
   4.16250005E-02  -1.59607334E-05
   4.17000018E-02  -1.59049141E-05
   4.17749994E-02  -1.58314924E-05
   4.18500006E-02  -1.57401100E-05
   4.19249982E-02  -1.56304231E-05
   4.19999994E-02  -1.55020971E-05
   4.20750007E-02  -1.53548081E-05
   4.21499982E-02  -1.51882441E-05
   4.22249995E-02  -1.50021106E-05
   4.23000008E-02  -1.47961218E-05
   4.23749983E-02  -1.45700114E-05
   4.24499996E-02  -1.43235266E-05
   4.25250009E-02  -1.40564289E-05
   4.25999984E-02  -1.37684965E-05
   4.26749997E-02  -1.34595248E-05
   4.27500010E-02  -1.31293282E-05
   4.28249985E-02  -1.27777357E-05
   4.28999998E-02  -1.24045973E-05
   4.29750010E-02  -1.20097829E-05
   4.30499986E-02  -1.15931789E-05
   4.31249999E-02  -1.11546942E-05
   4.32000011E-02  -1.06942607E-05
   4.32749987E-02  -1.02118256E-05
   4.33499999E-02  -9.70736346E-06
   4.34250012E-02  -9.18086880E-06
   4.34999987E-02  -8.63235709E-06
   4.35750000E-02  -8.06187109E-06
   4.36500013E-02  -7.46947308E-06
   4.37249988E-02  -6.85525129E-06
   4.38000001E-02  -6.21931895E-06
   4.38750014E-02  -5.56181294E-06
   4.39499989E-02  -4.88289470E-06
   4.40250002E-02  -4.18275204E-06
   4.41000015E-02  -3.46159891E-06
   4.41749990E-02  -2.71967474E-06
   4.42500003E-02  -1.95724556E-06
   4.43250015E-02  -1.17460354E-06
   4.43999991E-02  -3.72068200E-07
   4.44750004E-02   4.50014085E-07
   4.45500016E-02   1.29126965E-06
   4.46249992E-02   2.15129785E-06
   4.47000004E-02   3.02966987E-06
   4.47750017E-02   3.92593029E-06
   4.48499992E-02   4.83959457E-06
   4.49250005E-02   5.77015180E-06
   4.50000018E-02   6.71706312E-06
   4.50749993E-02   7.67976144E-06
   4.51500006E-02   8.65765196E-06
   4.52249981E-02   9.65011441E-06
   4.52999994E-02   1.06564985E-05
   4.53750007E-02   1.16761266E-05
   4.54499982E-02   1.27082949E-05
   4.55249995E-02   1.37522729E-05
   4.56000008E-02   1.48073023E-05
   4.56749983E-02   1.58726016E-05
   4.57499996E-02   1.69473569E-05
   4.58250009E-02   1.80307325E-05
   4.58999984E-02   1.91218696E-05
   4.59749997E-02   2.02198771E-05
   4.60500009E-02   2.13238472E-05
   4.61249985E-02   2.24328414E-05
   4.61999997E-02   2.35459011E-05
   4.62750010E-02   2.46620421E-05
   4.63499986E-02   2.57802603E-05
   4.64249998E-02   2.68995282E-05
   4.65000011E-02   2.80187996E-05
   4.65749986E-02   2.91370034E-05
   4.66499999E-02   3.02530461E-05
   4.67250012E-02   3.13658202E-05
   4.67999987E-02   3.24742032E-05
   4.68750000E-02   3.35770419E-05
   4.69500013E-02   3.46731722E-05
   4.70249988E-02   3.57614226E-05
   4.71000001E-02   3.68405963E-05
   4.71750014E-02   3.79094818E-05
   4.72499989E-02   3.89668567E-05
   4.73250002E-02   4.00114841E-05
   4.74000014E-02   4.10421235E-05
   4.74749990E-02   4.20575197E-05
   4.75500003E-02   4.30563996E-05
   4.76250015E-02   4.40374897E-05
   4.76999991E-02   4.49995096E-05
   4.77750003E-02   4.59411676E-05
   4.78500016E-02   4.68611725E-05
   4.79249991E-02   4.77582289E-05
   4.80000004E-02   4.86310382E-05
   4.80750017E-02   4.94782907E-05
   4.81499992E-02   5.02986913E-05
   4.82250005E-02   5.10909376E-05
   4.83000018E-02   5.18537308E-05
   4.83749993E-02   5.25857758E-05
   4.84500006E-02   5.32857885E-05
   4.85250019E-02   5.39524772E-05
   4.85999994E-02   5.45845724E-05
   4.86750007E-02   5.51808043E-05
   4.87499982E-02   5.57399144E-05
   4.88249995E-02   5.62606583E-05
   4.89000008E-02   5.67417992E-05
   4.89749983E-02   5.71821220E-05
   4.90499996E-02   5.75804297E-05
   4.91250008E-02   5.79355328E-05
   4.91999984E-02   5.82462671E-05
   4.92749996E-02   5.85114904E-05
   4.93500009E-02   5.87300710E-05
   4.94249985E-02   5.89009178E-05
   4.94999997E-02   5.90229429E-05
   4.95750010E-02   5.90950985E-05
   4.96499985E-02   5.91163589E-05
   4.97249998E-02   5.90857308E-05
   4.98000011E-02   5.90022464E-05
   4.98749986E-02   5.88649746E-05
   4.99499999E-02   5.86730057E-05
   5.00250012E-02   5.84254813E-05
   5.00999987E-02   5.81215609E-05
   5.01750000E-02   5.77604515E-05
   5.02500013E-02   5.73413890E-05
   5.03249988E-02   5.68636679E-05
   5.04000001E-02   5.63266040E-05
   5.04750013E-02   5.57295680E-05
   5.05499989E-02   5.50719633E-05
   5.06250001E-02   5.43532442E-05
   5.07000014E-02   5.35729087E-05
   5.07749990E-02   5.27304983E-05
   5.08500002E-02   5.18256020E-05
   5.09250015E-02   5.08578705E-05
   5.09999990E-02   4.98269910E-05
   5.10750003E-02   4.87327088E-05
   5.11500016E-02   4.75748238E-05
   5.12249991E-02   4.63531796E-05
   5.13000004E-02   4.50676816E-05
   5.13750017E-02   4.37182898E-05
   5.14499992E-02   4.23050187E-05
   5.15250005E-02   4.08279375E-05
   5.16000018E-02   3.92871771E-05
   5.16749993E-02   3.76829230E-05
   5.17500006E-02   3.60154299E-05
   5.18250018E-02   3.42849999E-05
   5.18999994E-02   3.24919965E-05
   5.19750006E-02   3.06368565E-05
   5.20499982E-02   2.87200655E-05
   5.21249995E-02   2.67421783E-05
   5.22000007E-02   2.47038079E-05
   5.22749983E-02   2.26056345E-05
   5.23499995E-02   2.04484022E-05
   5.24250008E-02   1.82329113E-05
   5.24999984E-02   1.59600349E-05
   5.25749996E-02   1.36307017E-05
   5.26500009E-02   1.12459111E-05
   5.27249984E-02   8.80672451E-06
   5.27999997E-02   6.31426656E-06
   5.28750010E-02   3.76972866E-06
   5.29499985E-02   1.17436275E-06
   5.30249998E-02  -1.47051207E-06
   5.31000011E-02  -4.16351440E-06
   5.31749986E-02  -6.90320121E-06
   5.32499999E-02  -9.68806216E-06
   5.33250012E-02  -1.25165261E-05
   5.33999987E-02  -1.53869623E-05
   5.34750000E-02  -1.82976764E-05
   5.35500012E-02  -2.12469095E-05
   5.36249988E-02  -2.42328497E-05
   5.37000000E-02  -2.72536181E-05
   5.37750013E-02  -3.03072811E-05
   5.38499989E-02  -3.33918470E-05
   5.39250001E-02  -3.65052583E-05
   5.40000014E-02  -3.96454197E-05
   5.40749989E-02  -4.28101557E-05
   5.41500002E-02  -4.59972616E-05
   5.42250015E-02  -4.92044528E-05
   5.42999990E-02  -5.24294228E-05
   5.43750003E-02  -5.56697923E-05
   5.44500016E-02  -5.89231386E-05
   5.45249991E-02  -6.21869840E-05
   5.46000004E-02  -6.54588221E-05
   5.46750017E-02  -6.87360880E-05
   5.47499992E-02  -7.20161697E-05
   5.48250005E-02  -7.52964261E-05
   5.49000017E-02  -7.85741577E-05
   5.49749993E-02  -8.18466433E-05
   5.50500005E-02  -8.51111181E-05
   5.51250018E-02  -8.83647881E-05
   5.51999994E-02  -9.16048084E-05
   5.52750006E-02  -9.48283123E-05
   5.53499982E-02  -9.80324112E-05
   5.54249994E-02  -1.01214187E-04
   5.55000007E-02  -1.04370687E-04
   5.55749983E-02  -1.07498927E-04
   5.56499995E-02  -1.10595924E-04
   5.57250008E-02  -1.13658658E-04
   5.57999983E-02  -1.16684096E-04
   5.58749996E-02  -1.19669217E-04
   5.59500009E-02  -1.22610945E-04
   5.60249984E-02  -1.25506209E-04
   5.60999997E-02  -1.28351938E-04
   5.61750010E-02  -1.31145061E-04
   5.62499985E-02  -1.33882480E-04
   5.63249998E-02  -1.36561110E-04
   5.64000010E-02  -1.39177893E-04
   5.64749986E-02  -1.41729732E-04
   5.65499999E-02  -1.44213540E-04
   5.66250011E-02  -1.46626277E-04
   5.66999987E-02  -1.48964886E-04
   5.67749999E-02  -1.51226341E-04
   5.68500012E-02  -1.53407615E-04
   5.69249988E-02  -1.55505695E-04
   5.70000000E-02  -1.57517614E-04
   5.70750013E-02  -1.59440460E-04
   5.71499988E-02  -1.61271266E-04
   5.72250001E-02  -1.63007164E-04
   5.73000014E-02  -1.64645287E-04
   5.73749989E-02  -1.66182799E-04
   5.74500002E-02  -1.67616949E-04
   5.75250015E-02  -1.68944956E-04
   5.75999990E-02  -1.70164145E-04
   5.76750003E-02  -1.71271880E-04
   5.77500015E-02  -1.72265529E-04
   5.78249991E-02  -1.73142558E-04
   5.79000004E-02  -1.73900466E-04
   5.79750016E-02  -1.74536806E-04
   5.80499992E-02  -1.75049223E-04
   5.81250004E-02  -1.75435387E-04
   5.82000017E-02  -1.75693072E-04
   5.82749993E-02  -1.75820067E-04
   5.83500005E-02  -1.75814275E-04
   5.84250018E-02  -1.75673660E-04
   5.84999993E-02  -1.75396242E-04
   5.85750006E-02  -1.74980145E-04
   5.86499982E-02  -1.74423578E-04
   5.87249994E-02  -1.73724809E-04
   5.88000007E-02  -1.72882210E-04
   5.88749982E-02  -1.71894222E-04
   5.89499995E-02  -1.70759391E-04
   5.90250008E-02  -1.69476349E-04
   5.90999983E-02  -1.68043814E-04
   5.91749996E-02  -1.66460639E-04
   5.92500009E-02  -1.64725730E-04
   5.93249984E-02  -1.62838114E-04
   5.93999997E-02  -1.60796902E-04
   5.94750009E-02  -1.58601353E-04
   5.95499985E-02  -1.56250782E-04
   5.96249998E-02  -1.53744651E-04
   5.97000010E-02  -1.51082510E-04
   5.97749986E-02  -1.48264022E-04
   5.98499998E-02  -1.45288985E-04
   5.99250011E-02  -1.42157296E-04
   5.99999987E-02  -1.38868971E-04
   6.00749999E-02  -1.35424125E-04
   6.01500012E-02  -1.31823021E-04
   6.02249987E-02  -1.28066036E-04
   6.03000000E-02  -1.24153667E-04
   6.03750013E-02  -1.20086530E-04
   6.04499988E-02  -1.15865383E-04
   6.05250001E-02  -1.11491099E-04
   6.06000014E-02  -1.06964668E-04
   6.06749989E-02  -1.02287217E-04
   6.07500002E-02  -9.74599971E-05
   6.08250014E-02  -9.24843844E-05
   6.08999990E-02  -8.73619065E-05
   6.09750003E-02  -8.20941932E-05
   6.10500015E-02  -7.66830126E-05
   6.11249991E-02  -7.11302928E-05
   6.12000003E-02  -6.54380492E-05
   6.12750016E-02  -5.96084647E-05
   6.13499992E-02  -5.36438311E-05
   6.14250004E-02  -4.75465786E-05
   6.15000017E-02  -4.13192683E-05
   6.15749992E-02  -3.49645961E-05
   6.16500005E-02  -2.84853813E-05
   6.17250018E-02  -2.18845835E-05
   6.17999993E-02  -1.51652894E-05
   6.18750006E-02  -8.33071408E-06
   6.19499981E-02  -1.38419932E-06
   6.20249994E-02   5.67078132E-06
   6.21000007E-02   1.28306310E-05
   6.21749982E-02   2.00916238E-05
   6.22499995E-02   2.74499089E-05
   6.23250008E-02   3.49015099E-05
   6.23999983E-02   4.24423306E-05
   6.24749996E-02   5.00681563E-05
   6.25500008E-02   5.77746432E-05
   6.26249984E-02   6.55573313E-05
   6.27000034E-02   7.34116547E-05
   6.27750009E-02   8.13329316E-05
   6.28499985E-02   8.93163451E-05
   6.29250035E-02   9.73569840E-05
   6.30000010E-02   1.05449835E-04
   6.30749986E-02   1.13589762E-04
   6.31500036E-02   1.21771540E-04
   6.32250011E-02   1.29989843E-04
   6.32999986E-02   1.38239222E-04
   6.33750036E-02   1.46514169E-04
   6.34500012E-02   1.54809051E-04
   6.35249987E-02   1.63118137E-04
   6.36000037E-02   1.71435633E-04
   6.36750013E-02   1.79755647E-04
   6.37499988E-02   1.88072241E-04
   6.38249964E-02   1.96379333E-04
   6.39000013E-02   2.04670796E-04
   6.39749989E-02   2.12940431E-04
   6.40499964E-02   2.21182010E-04
   6.41250014E-02   2.29389174E-04
   6.41999990E-02   2.37555520E-04