   0.00000000       0.00000000    
   7.50000036E-05   0.00000000    
   1.50000007E-04   0.00000000    
   2.24999996E-04   0.00000000    
   3.00000014E-04  -6.83736468E-22
   3.75000003E-04  -8.20773679E-21
   4.49999992E-04  -5.19881399E-20
   5.24999981E-04  -2.32557564E-19
   6.00000028E-04  -8.27413774E-19
   6.75000018E-04  -2.49624559E-18
   7.50000007E-04  -6.64291338E-18
   8.24999996E-04  -1.60100427E-17
   8.99999985E-04  -3.56028660E-17
   9.74999974E-04  -7.40619536E-17
   1.04999996E-03  -1.45629726E-16
   1.12499995E-03  -2.72882490E-16
   1.20000006E-03  -4.90428900E-16
   1.27500005E-03  -8.49806239E-16
   1.35000004E-03  -1.42583714E-15
   1.42500002E-03  -2.32474312E-15
   1.50000001E-03  -3.69434690E-15
   1.57500000E-03  -5.73672291E-15
   1.64999999E-03  -8.72370837E-15
   1.72499998E-03  -1.30156988E-14
   1.79999997E-03  -1.90842080E-14
   1.87499996E-03  -2.75386996E-14
   1.94999995E-03  -3.91582281E-14
   2.02500005E-03  -5.49284773E-14
   2.09999993E-03  -7.60847955E-14
   2.17500003E-03  -1.04161878E-13
   2.24999990E-03  -1.41050772E-13
   2.32500001E-03  -1.89063920E-13
   2.40000011E-03  -2.51008958E-13
   2.47499999E-03  -3.30271834E-13
   2.55000009E-03  -4.30910705E-13
   2.62499996E-03  -5.57760218E-13
   2.70000007E-03  -7.16548294E-13
   2.77499994E-03  -9.14025149E-13
   2.85000005E-03  -1.15810627E-12
   2.92499992E-03  -1.45802923E-12
   3.00000003E-03  -1.82452642E-12
   3.07499990E-03  -2.27001317E-12
   3.15000000E-03  -2.80879269E-12
   3.22500011E-03  -3.45727895E-12
   3.29999998E-03  -4.23423839E-12
   3.37500009E-03  -5.16105084E-12
   3.44999996E-03  -6.26198702E-12
   3.52500007E-03  -7.56451325E-12
   3.59999994E-03  -9.09961082E-12
   3.67500004E-03  -1.09021204E-11
   3.74999992E-03  -1.30111096E-11
   3.82500002E-03  -1.54702640E-11
   3.89999989E-03  -1.83282920E-11
   3.97500023E-03  -2.16393691E-11
   4.05000011E-03  -2.54635948E-11
   4.12499998E-03  -2.98674765E-11
   4.19999985E-03  -3.49244314E-11
   4.27500019E-03  -4.07153374E-11
   4.35000006E-03  -4.73290608E-11
   4.42499993E-03  -5.48630724E-11
   4.49999981E-03  -6.34240022E-11
   4.57500014E-03  -7.31283228E-11
   4.65000002E-03  -8.41029330E-11
   4.72499989E-03  -9.64859026E-11
   4.80000023E-03  -1.10427098E-10
   4.87500010E-03  -1.26088917E-10
   4.94999997E-03  -1.43647011E-10
   5.02499985E-03  -1.63291061E-10
   5.10000018E-03  -1.85225502E-10
   5.17500006E-03  -2.09670267E-10
   5.24999993E-03  -2.36861697E-10
   5.32499980E-03  -2.67053213E-10
   5.40000014E-03  -3.00516084E-10
   5.47500001E-03  -3.37540468E-10
   5.54999989E-03  -3.78435949E-10
   5.62500022E-03  -4.23532487E-10
   5.70000010E-03  -4.73181272E-10
   5.77499997E-03  -5.27755395E-10
   5.84999984E-03  -5.87650706E-10
   5.92500018E-03  -6.53286703E-10
   6.00000005E-03  -7.25107030E-10
   6.07499992E-03  -8.03580591E-10
   6.14999980E-03  -8.89201879E-10
   6.22500014E-03  -9.82491866E-10
   6.30000001E-03  -1.08399878E-09
   6.37499988E-03  -1.19429833E-09
   6.45000022E-03  -1.31399491E-09
   6.52500009E-03  -1.44372148E-09
   6.59999996E-03  -1.58414037E-09
   6.67499984E-03  -1.73594394E-09
   6.75000018E-03  -1.89985427E-09
   6.82500005E-03  -2.07662376E-09
   6.89999992E-03  -2.26703589E-09
   6.97499979E-03  -2.47190424E-09
   7.05000013E-03  -2.69207412E-09
   7.12500000E-03  -2.92842084E-09
   7.19999988E-03  -3.18185078E-09
   7.27500021E-03  -3.45330031E-09
   7.35000009E-03  -3.74373643E-09
   7.42499996E-03  -4.05415479E-09
   7.49999983E-03  -4.38558079E-09
   7.57500017E-03  -4.73906780E-09
   7.65000004E-03  -5.11569676E-09
   7.72499992E-03  -5.51657520E-09
   7.79999979E-03  -5.94283556E-09
   7.87500013E-03  -6.39563380E-09
   7.95000046E-03  -6.87615076E-09
   8.02499987E-03  -7.38558681E-09
   8.10000021E-03  -7.92516008E-09
   8.17499962E-03  -8.49610782E-09
   8.24999996E-03  -9.09968279E-09
   8.32500029E-03  -9.73714886E-09
   8.39999970E-03  -1.04097824E-08
   8.47500004E-03  -1.11188649E-08
   8.55000038E-03  -1.18656844E-08
   8.62499978E-03  -1.26515314E-08
   8.70000012E-03  -1.34776919E-08
   8.77500046E-03  -1.43454493E-08
   8.84999987E-03  -1.52560773E-08
   8.92500021E-03  -1.62108336E-08
   8.99999961E-03  -1.72109669E-08
   9.07499995E-03  -1.82576958E-08
   9.15000029E-03  -1.93522194E-08
   9.22499970E-03  -2.04956994E-08
   9.30000003E-03  -2.16892655E-08
   9.37500037E-03  -2.29340102E-08
   9.44999978E-03  -2.42309710E-08
   9.52500012E-03  -2.55811390E-08
   9.60000046E-03  -2.69854414E-08
   9.67499986E-03  -2.84447470E-08
   9.75000020E-03  -2.99598533E-08
   9.82499961E-03  -3.15314672E-08
   9.89999995E-03  -3.31602301E-08
   9.97500028E-03  -3.48466820E-08
   1.00499997E-02  -3.65912634E-08
   1.01250000E-02  -3.83943082E-08
   1.02000004E-02  -4.02560403E-08
   1.02749998E-02  -4.21765556E-08
   1.03500001E-02  -4.41558257E-08
   1.04250005E-02  -4.61936871E-08
   1.04999999E-02  -4.82898201E-08
   1.05750002E-02  -5.04437523E-08
   1.06499996E-02  -5.26548547E-08
   1.07249999E-02  -5.49223209E-08
   1.08000003E-02  -5.72451704E-08
   1.08749997E-02  -5.96222307E-08
   1.09500000E-02  -6.20521092E-08
   1.10250004E-02  -6.45332392E-08
   1.10999998E-02  -6.70638087E-08
   1.11750001E-02  -6.96417928E-08
   1.12500004E-02  -7.22649389E-08
   1.13249999E-02  -7.49307318E-08
   1.14000002E-02  -7.76364075E-08
   1.14749996E-02  -8.03789391E-08
   1.15499999E-02  -8.31550224E-08
   1.16250003E-02  -8.59610907E-08
   1.16999997E-02  -8.87932714E-08
   1.17750000E-02  -9.16473937E-08
   1.18500004E-02  -9.45189811E-08
   1.19249998E-02  -9.74032446E-08
   1.20000001E-02  -1.00295061E-07
   1.20750004E-02  -1.03188974E-07
   1.21499998E-02  -1.06079206E-07
   1.22250002E-02  -1.08959611E-07
   1.22999996E-02  -1.11823695E-07
   1.23749999E-02  -1.14664601E-07
   1.24500003E-02  -1.17475111E-07
   1.25249997E-02  -1.20247620E-07
   1.26000000E-02  -1.22974143E-07
   1.26750004E-02  -1.25646338E-07
   1.27499998E-02  -1.28255422E-07
   1.28250001E-02  -1.30792259E-07
   1.29000004E-02  -1.33247283E-07
   1.29749998E-02  -1.35610577E-07
   1.30500002E-02  -1.37871751E-07
   1.31249996E-02  -1.40020092E-07
   1.31999999E-02  -1.42044385E-07
   1.32750003E-02  -1.43933079E-07
   1.33499997E-02  -1.45674178E-07
   1.34250000E-02  -1.47255321E-07
   1.35000004E-02  -1.48663716E-07
   1.35749998E-02  -1.49886148E-07
   1.36500001E-02  -1.50909045E-07
   1.37250004E-02  -1.51718424E-07
   1.37999998E-02  -1.52299890E-07
   1.38750002E-02  -1.52638705E-07
   1.39499996E-02  -1.52719750E-07
   1.40249999E-02  -1.52527505E-07
   1.41000003E-02  -1.52046127E-07
   1.41749997E-02  -1.51259414E-07
   1.42500000E-02  -1.50150825E-07
   1.43250003E-02  -1.48703521E-07
   1.43999998E-02  -1.46900319E-07
   1.44750001E-02  -1.44723757E-07
   1.45500004E-02  -1.42156097E-07
   1.46249998E-02  -1.39179335E-07
   1.47000002E-02  -1.35775238E-07
   1.47749996E-02  -1.31925333E-07
   1.48499999E-02  -1.27610946E-07
   1.49250003E-02  -1.22813248E-07
   1.49999997E-02  -1.17513231E-07
   1.50750000E-02  -1.11691740E-07
   1.51500003E-02  -1.05329555E-07
   1.52249997E-02  -9.84073623E-08
   1.53000001E-02  -9.09057789E-08
   1.53750004E-02  -8.28054354E-08
   1.54499998E-02  -7.40869623E-08
   1.55250002E-02  -6.47310330E-08
   1.55999996E-02  -5.47183916E-08
   1.56750008E-02  -4.40299068E-08
   1.57500003E-02  -3.26466036E-08
   1.58249997E-02  -2.05497042E-08
   1.59000009E-02  -7.72063835E-09
   1.59750003E-02   5.85888760E-09
   1.60499997E-02   2.02068478E-08
   1.61249992E-02   3.53408645E-08
   1.62000004E-02   5.12781710E-08
   1.62749998E-02   6.80355399E-08
   1.63499992E-02   8.56292814E-08
   1.64250005E-02   1.04075134E-07
   1.64999999E-02   1.23388276E-07
   1.65749993E-02   1.43583222E-07
   1.66500006E-02   1.64673835E-07
   1.67250000E-02   1.86673219E-07
   1.67999994E-02   2.09593679E-07
   1.68750007E-02   2.33446713E-07
   1.69500001E-02   2.58242864E-07
   1.70249995E-02   2.83991739E-07
   1.71000008E-02   3.10701950E-07
   1.71750002E-02   3.38381028E-07
   1.72499996E-02   3.67035426E-07
   1.73250008E-02   3.96670288E-07
   1.74000002E-02   4.27289677E-07
   1.74749997E-02   4.58896295E-07
   1.75500009E-02   4.91491505E-07
   1.76250003E-02   5.25075166E-07
   1.76999997E-02   5.59645741E-07
   1.77749991E-02   5.95200220E-07
   1.78500004E-02   6.31733883E-07
   1.79249998E-02   6.69240364E-07
   1.79999992E-02   7.07711763E-07
   1.80750005E-02   7.47138188E-07
   1.81499999E-02   7.87508043E-07
   1.82249993E-02   8.28807799E-07
   1.83000006E-02   8.71022223E-07
   1.83750000E-02   9.14133750E-07
   1.84499994E-02   9.58122882E-07
   1.85250007E-02   1.00296813E-06
   1.86000001E-02   1.04864580E-06
   1.86749995E-02   1.09512985E-06
   1.87500007E-02   1.14239231E-06
   1.88250002E-02   1.19040237E-06
   1.88999996E-02   1.23912741E-06
   1.89750008E-02   1.28853230E-06
   1.90500002E-02   1.33857930E-06
   1.91249996E-02   1.38922826E-06
   1.92000009E-02   1.44043679E-06
   1.92750003E-02   1.49215930E-06
   1.93499997E-02   1.54434838E-06
   1.94249991E-02   1.59695344E-06
   1.95000004E-02   1.64992150E-06
   1.95749998E-02   1.70319663E-06
   1.96499992E-02   1.75672051E-06
   1.97250005E-02   1.81043197E-06
   1.97999999E-02   1.86426723E-06
   1.98749993E-02   1.91815957E-06
   1.99500006E-02   1.97203963E-06
   2.00250000E-02   2.02583533E-06
   2.00999994E-02   2.07947164E-06
   2.01750007E-02   2.13287103E-06
   2.02500001E-02   2.18595255E-06
   2.03249995E-02   2.23863299E-06
   2.04000007E-02   2.29082661E-06
   2.04750001E-02   2.34244476E-06
   2.05499995E-02   2.39339556E-06
   2.06250008E-02   2.44358534E-06
   2.07000002E-02   2.49291679E-06
   2.07749996E-02   2.54129100E-06
   2.08500009E-02   2.58860564E-06
   2.09250003E-02   2.63475590E-06
   2.09999997E-02   2.67963514E-06
   2.10749991E-02   2.72313355E-06
   2.11500004E-02   2.76513924E-06
   2.12249998E-02   2.80553832E-06
   2.12999992E-02   2.84421390E-06
   2.13750005E-02   2.88104752E-06
   2.14499999E-02   2.91591846E-06
   2.15249993E-02   2.94870392E-06
   2.16000006E-02   2.97927909E-06
   2.16750000E-02   3.00751753E-06
   2.17499994E-02   3.03329125E-06
   2.18250006E-02   3.05647018E-06
   2.19000001E-02   3.07692312E-06
   2.19749995E-02   3.09451730E-06
   2.20500007E-02   3.10911878E-06
   2.21250001E-02   3.12059251E-06
   2.21999995E-02   3.12880229E-06
   2.22750008E-02   3.13361124E-06
   2.23500002E-02   3.13488158E-06
   2.24249996E-02   3.13247506E-06
   2.25000009E-02   3.12625320E-06
   2.25750003E-02   3.11607732E-06
   2.26499997E-02   3.10180803E-06
   2.27249991E-02   3.08330709E-06
   2.28000004E-02   3.06043603E-06
   2.28749998E-02   3.03305637E-06
   2.29499992E-02   3.00103125E-06
   2.30250005E-02   2.96422400E-06
   2.30999999E-02   2.92249888E-06
   2.31749993E-02   2.87572198E-06
   2.32500006E-02   2.82376072E-06
   2.33250000E-02   2.76648416E-06
   2.33999994E-02   2.70376313E-06
   2.34750006E-02   2.63547076E-06
   2.35500000E-02   2.56148246E-06
   2.36249994E-02   2.48167589E-06
   2.37000007E-02   2.39593214E-06
   2.37750001E-02   2.30413480E-06
   2.38499995E-02   2.20617130E-06
   2.39250008E-02   2.10193252E-06
   2.40000002E-02   1.99131250E-06
   2.40749996E-02   1.87420972E-06
   2.41500009E-02   1.75052730E-06
   2.42250003E-02   1.62017238E-06
   2.42999997E-02   1.48305708E-06
   2.43749991E-02   1.33909850E-06
   2.44500004E-02   1.18821913E-06
   2.45249998E-02   1.03034722E-06
   2.45999992E-02   8.65416212E-07
   2.46750005E-02   6.93366246E-07
   2.47499999E-02   5.14143551E-07
   2.48249993E-02   3.27700974E-07
   2.49000005E-02   1.33998171E-07
   2.49749999E-02  -6.69981333E-08
   2.50499994E-02  -2.75313766E-07
   2.51250006E-02  -4.90966727E-07
   2.52000000E-02  -7.13967438E-07
   2.52749994E-02  -9.44318117E-07
   2.53500007E-02  -1.18201285E-06
   2.54250001E-02  -1.42703675E-06
   2.54999995E-02  -1.67936616E-06
   2.55750008E-02  -1.93896858E-06
   2.56500002E-02  -2.20580182E-06
   2.57249996E-02  -2.47981461E-06
   2.58000009E-02  -2.76094579E-06
   2.58750003E-02  -3.04912373E-06
   2.59499997E-02  -3.34426704E-06
   2.60249991E-02  -3.64628386E-06
   2.61000004E-02  -3.95507232E-06
   2.61749998E-02  -4.27051918E-06
   2.62499992E-02  -4.59249986E-06
   2.63250005E-02  -4.92087929E-06
   2.63999999E-02  -5.25551104E-06
   2.64749993E-02  -5.59623732E-06
   2.65500005E-02  -5.94288804E-06
   2.66249999E-02  -6.29528313E-06
   2.66999993E-02  -6.65322841E-06
   2.67750006E-02  -7.01651879E-06
   2.68500000E-02  -7.38493827E-06
   2.69249994E-02  -7.75825629E-06
   2.70000007E-02  -8.13623137E-06
   2.70750001E-02  -8.51861023E-06
   2.71499995E-02  -8.90512729E-06
   2.72250008E-02  -9.29550242E-06
   2.73000002E-02  -9.68944641E-06
   2.73749996E-02  -1.00866537E-05
   2.74500009E-02  -1.04868095E-05
   2.75250003E-02  -1.08895856E-05
   2.75999997E-02  -1.12946400E-05
   2.76749991E-02  -1.17016207E-05
   2.77500004E-02  -1.21101612E-05
   2.78249998E-02  -1.25198831E-05
   2.78999992E-02  -1.29303990E-05
   2.79750004E-02  -1.33413041E-05
   2.80499998E-02  -1.37521847E-05
   2.81249993E-02  -1.41626151E-05
   2.82000005E-02  -1.45721569E-05
   2.82749999E-02  -1.49803636E-05
   2.83499993E-02  -1.53867732E-05
   2.84250006E-02  -1.57909162E-05
   2.85000000E-02  -1.61923072E-05
   2.85749994E-02  -1.65904548E-05
   2.86500007E-02  -1.69848572E-05
   2.87250001E-02  -1.73749977E-05
   2.87999995E-02  -1.77603561E-05
   2.88750008E-02  -1.81403975E-05
   2.89500002E-02  -1.85145782E-05
   2.90249996E-02  -1.88823506E-05
   2.91000009E-02  -1.92431544E-05
   2.91750003E-02  -1.95964221E-05
   2.92499997E-02  -1.99415808E-05
   2.93249991E-02  -2.02780466E-05
   2.94000003E-02  -2.06052300E-05
   2.94749998E-02  -2.09225327E-05
   2.95499992E-02  -2.12293580E-05
   2.96250004E-02  -2.15250966E-05
   2.96999998E-02  -2.18091354E-05
   2.97749992E-02  -2.20808615E-05
   2.98500005E-02  -2.23396546E-05
   2.99249999E-02  -2.25848889E-05
   2.99999993E-02  -2.28159388E-05
   3.00750006E-02  -2.30321766E-05
   3.01500000E-02  -2.32329749E-05
   3.02249994E-02  -2.34176987E-05
   3.03000007E-02  -2.35857187E-05
   3.03750001E-02  -2.37364075E-05
   3.04499995E-02  -2.38691318E-05
   3.05250008E-02  -2.39832680E-05
   3.06000002E-02  -2.40781865E-05
   3.06749996E-02  -2.41532707E-05
   3.07500008E-02  -2.42078986E-05
   3.08250003E-02  -2.42414571E-05
   3.08999997E-02  -2.42533370E-05
   3.09749991E-02  -2.42429360E-05
   3.10500003E-02  -2.42096594E-05
   3.11249997E-02  -2.41529215E-05
   3.11999992E-02  -2.40721383E-05
   3.12750004E-02  -2.39667443E-05
   3.13500017E-02  -2.38361754E-05
   3.14249992E-02  -2.36798824E-05
   3.15000005E-02  -2.34973286E-05
   3.15750018E-02  -2.32879866E-05
   3.16499993E-02  -2.30513469E-05
   3.17250006E-02  -2.27869077E-05
   3.18000019E-02  -2.24941887E-05
   3.18749994E-02  -2.21727205E-05
   3.19500007E-02  -2.18220521E-05
   3.20249982E-02  -2.14417505E-05
   3.20999995E-02  -2.10313956E-05
   3.21750008E-02  -2.05905944E-05
   3.22499983E-02  -2.01189669E-05
   3.23249996E-02  -1.96161600E-05
   3.24000008E-02  -1.90818373E-05
   3.24749984E-02  -1.85156841E-05
   3.25499997E-02  -1.79174149E-05
   3.26250009E-02  -1.72867585E-05
   3.26999985E-02  -1.66234749E-05
   3.27749997E-02  -1.59273495E-05
   3.28500010E-02  -1.51981903E-05
   3.29249986E-02  -1.44358373E-05
   3.29999998E-02  -1.36401532E-05
   3.30750011E-02  -1.28110314E-05
   3.31499986E-02  -1.19483948E-05
   3.32249999E-02  -1.10521951E-05
   3.33000012E-02  -1.01224150E-05
   3.33749987E-02  -9.15906639E-06
   3.34500000E-02  -8.16219745E-06
   3.35250013E-02  -7.13188547E-06
   3.35999988E-02  -6.06824051E-06
   3.36750001E-02  -4.97140854E-06
   3.37500013E-02  -3.84156692E-06
   3.38249989E-02  -2.67893097E-06
   3.39000002E-02  -1.48374909E-06
   3.39750014E-02  -2.56306294E-07
   3.40499990E-02   1.00307602E-06
   3.41250002E-02   2.29404054E-06
   3.42000015E-02   3.61619345E-06
   3.42749991E-02   4.96910161E-06
   3.43500003E-02   6.35229480E-06
   3.44250016E-02   7.76526394E-06
   3.44999991E-02   9.20746243E-06
   3.45750004E-02   1.06783064E-05
   3.46500017E-02   1.21771682E-05
   3.47249992E-02   1.37033867E-05
   3.48000005E-02   1.52562570E-05
   3.48750018E-02   1.68350380E-05
   3.49499993E-02   1.84389464E-05
   3.50250006E-02   2.00671620E-05
   3.51000018E-02   2.17188208E-05
   3.51749994E-02   2.33930259E-05
   3.52500007E-02   2.50888334E-05
   3.53249982E-02   2.68052663E-05
   3.53999995E-02   2.85413043E-05
   3.54750007E-02   3.02958870E-05
   3.55499983E-02   3.20679210E-05
   3.56249996E-02   3.38562641E-05
   3.57000008E-02   3.56597484E-05
   3.57749984E-02   3.74771553E-05
   3.58499996E-02   3.93072405E-05
   3.59250009E-02   4.11487126E-05
   3.59999985E-02   4.30002510E-05
   3.60749997E-02   4.48604915E-05
   3.61500010E-02   4.67280479E-05
   3.62249985E-02   4.86014724E-05
   3.62999998E-02   5.04793170E-05
   3.63750011E-02   5.23600756E-05
   3.64499986E-02   5.42422094E-05
   3.65249999E-02   5.61241577E-05
   3.66000012E-02   5.80043270E-05
   3.66749987E-02   5.98810911E-05
   3.67500000E-02   6.17527985E-05
   3.68250012E-02   6.36177574E-05
   3.68999988E-02   6.54742471E-05
   3.69750001E-02   6.73205504E-05
   3.70500013E-02   6.91548848E-05
   3.71249989E-02   7.09754677E-05
   3.72000001E-02   7.27804800E-05
   3.72750014E-02   7.45680809E-05
   3.73499990E-02   7.63364224E-05
   3.74250002E-02   7.80836199E-05
   3.75000015E-02   7.98077890E-05
   3.75749990E-02   8.15070089E-05
   3.76500003E-02   8.31793513E-05
   3.77250016E-02   8.48228738E-05
   3.77999991E-02   8.64356189E-05
   3.78750004E-02   8.80156222E-05
   3.79500017E-02   8.95608973E-05
   3.80249992E-02   9.10694725E-05
   3.81000005E-02   9.25393397E-05
   3.81750017E-02   9.39685124E-05
   3.82499993E-02   9.53549825E-05
   3.83250006E-02   9.66967491E-05
   3.84000018E-02   9.79918113E-05
   3.84749994E-02   9.92381611E-05
   3.85500006E-02   1.00433790E-04
   3.86249982E-02   1.01576712E-04
   3.86999995E-02   1.02664933E-04
   3.87750007E-02   1.03696482E-04
   3.88499983E-02   1.04669372E-04
   3.89249995E-02   1.05581646E-04
   3.90000008E-02   1.06431369E-04
   3.90749983E-02   1.07216612E-04
   3.91499996E-02   1.07935470E-04
   3.92250009E-02   1.08586042E-04
   3.92999984E-02   1.09166460E-04
   3.93749997E-02   1.09674867E-04
   3.94500010E-02   1.10109453E-04
   3.95249985E-02   1.10468420E-04
   3.95999998E-02   1.10750007E-04
   3.96750011E-02   1.10952467E-04
   3.97499986E-02   1.11074114E-04
   3.98249999E-02   1.11113259E-04
   3.99000011E-02   1.11068286E-04
   3.99749987E-02   1.10937603E-04
   4.00500000E-02   1.10719659E-04
   4.01250012E-02   1.10412933E-04
   4.01999988E-02   1.10015964E-04
   4.02750000E-02   1.09527340E-04
   4.03500013E-02   1.08945685E-04
   4.04249988E-02   1.08269691E-04
   4.05000001E-02   1.07498068E-04
   4.05750014E-02   1.06629603E-04
   4.06499989E-02   1.05663144E-04
   4.07250002E-02   1.04597573E-04
   4.08000015E-02   1.03431863E-04
   4.08749990E-02   1.02165024E-04
   4.09500003E-02   1.00796133E-04
   4.10250016E-02   9.93243157E-05
   4.10999991E-02   9.77488016E-05
   4.11750004E-02   9.60688485E-05
   4.12500016E-02   9.42838087E-05
   4.13249992E-02   9.23930929E-05
   4.14000005E-02   9.03961773E-05
   4.14750017E-02   8.82926252E-05
   4.15499993E-02   8.60820728E-05
   4.16250005E-02   8.37642147E-05
   4.17000018E-02   8.13388469E-05
   4.17749994E-02   7.88058242E-05
   4.18500006E-02   7.61650881E-05
   4.19249982E-02   7.34166679E-05
   4.19999994E-02   7.05606653E-05
   4.20750007E-02   6.75972697E-05
   4.21499982E-02   6.45267573E-05
   4.22249995E-02   6.13494776E-05
   4.23000008E-02   5.80658816E-05
   4.23749983E-02   5.46764932E-05
   4.24499996E-02   5.11819344E-05
   4.25250009E-02   4.75829074E-05
   4.25999984E-02   4.38802126E-05
   4.26749997E-02   4.00747340E-05
   4.27500010E-02   3.61674465E-05
   4.28249985E-02   3.21594162E-05
   4.28999998E-02   2.80517979E-05
   4.29750010E-02   2.38458433E-05
   4.30499986E-02   1.95428929E-05
   4.31249999E-02   1.51443810E-05
   4.32000011E-02   1.06518328E-05
   4.32749987E-02   6.06686535E-06
   4.33499999E-02   1.39119084E-06
   4.34250012E-02  -3.37338656E-06
   4.34999987E-02  -8.22497077E-06
   4.35750000E-02  -1.31615734E-05
   4.36500013E-02  -1.81811156E-05
   4.37249988E-02  -2.32814218E-05
   4.38000001E-02  -2.84602338E-05
   4.38750014E-02  -3.37151941E-05
   4.39499989E-02  -3.90438545E-05
   4.40250002E-02  -4.44436846E-05
   4.41000015E-02  -4.99120579E-05
   4.41749990E-02  -5.54462531E-05
   4.42500003E-02  -6.10434727E-05
   4.43250015E-02  -6.67008353E-05
   4.43999991E-02  -7.24153651E-05
   4.44750004E-02  -7.81839990E-05
   4.45500016E-02  -8.40035937E-05
   4.46249992E-02  -8.98709259E-05
   4.47000004E-02  -9.57826851E-05
   4.47750017E-02  -1.01735488E-04
   4.48499992E-02  -1.07725864E-04
   4.49250005E-02  -1.13750270E-04
   4.50000018E-02  -1.19805074E-04
   4.50749993E-02  -1.25886596E-04
   4.51500006E-02  -1.31991037E-04
   4.52249981E-02  -1.38114585E-04
   4.52999994E-02  -1.44253325E-04
   4.53750007E-02  -1.50403284E-04
   4.54499982E-02  -1.56560403E-04
   4.55249995E-02  -1.62720578E-04
   4.56000008E-02  -1.68879662E-04
   4.56749983E-02  -1.75033390E-04
   4.57499996E-02  -1.81177486E-04
   4.58250009E-02  -1.87307596E-04
   4.58999984E-02  -1.93419342E-04
   4.59749997E-02  -1.99508271E-04
   4.60500009E-02  -2.05569886E-04
   4.61249985E-02  -2.11599632E-04
   4.61999997E-02  -2.17592926E-04
   4.62750010E-02  -2.23545168E-04
   4.63499986E-02  -2.29451645E-04
   4.64249998E-02  -2.35307656E-04
   4.65000011E-02  -2.41108472E-04
   4.65749986E-02  -2.46849319E-04
   4.66499999E-02  -2.52525439E-04
   4.67250012E-02  -2.58131971E-04
   4.67999987E-02  -2.63664057E-04
   4.68750000E-02  -2.69116834E-04
   4.69500013E-02  -2.74485443E-04
   4.70249988E-02  -2.79764994E-04
   4.71000001E-02  -2.84950569E-04
   4.71750014E-02  -2.90037220E-04
   4.72499989E-02  -2.95020029E-04
   4.73250002E-02  -2.99894105E-04
   4.74000014E-02  -3.04654503E-04
   4.74749990E-02  -3.09296331E-04
   4.75500003E-02  -3.13814613E-04
   4.76250015E-02  -3.18204518E-04
   4.76999991E-02  -3.22461157E-04
   4.77750003E-02  -3.26579640E-04
   4.78500016E-02  -3.30555107E-04
   4.79249991E-02  -3.34382756E-04
   4.80000004E-02  -3.38057755E-04
   4.80750017E-02  -3.41575389E-04
   4.81499992E-02  -3.44930886E-04
   4.82250005E-02  -3.48119531E-04
   4.83000018E-02  -3.51136725E-04
   4.83749993E-02  -3.53977812E-04
   4.84500006E-02  -3.56638251E-04
   4.85250019E-02  -3.59113532E-04
   4.85999994E-02  -3.61399172E-04
   4.86750007E-02  -3.63490777E-04
   4.87499982E-02  -3.65383981E-04
   4.88249995E-02  -3.67074565E-04
   4.89000008E-02  -3.68558278E-04
   4.89749983E-02  -3.69830959E-04
   4.90499996E-02  -3.70888563E-04
   4.91250008E-02  -3.71727132E-04
   4.91999984E-02  -3.72342736E-04
   4.92749996E-02  -3.72731534E-04
   4.93500009E-02  -3.72889772E-04
   4.94249985E-02  -3.72813840E-04
   4.94999997E-02  -3.72500188E-04
   4.95750010E-02  -3.71945353E-04
   4.96499985E-02  -3.71145987E-04
   4.97249998E-02  -3.70098831E-04
   4.98000011E-02  -3.68800742E-04
   4.98749986E-02  -3.67248722E-04
   4.99499999E-02  -3.65439802E-04
   5.00250012E-02  -3.63371219E-04
   5.00999987E-02  -3.61040293E-04
   5.01750000E-02  -3.58444464E-04
   5.02500013E-02  -3.55581258E-04
   5.03249988E-02  -3.52448435E-04
   5.04000001E-02  -3.49043810E-04
   5.04750013E-02  -3.45365348E-04
   5.05499989E-02  -3.41411156E-04
   5.06250001E-02  -3.37179488E-04
   5.07000014E-02  -3.32668686E-04
   5.07749990E-02  -3.27877351E-04
   5.08500002E-02  -3.22804117E-04
   5.09250015E-02  -3.17447848E-04
   5.09999990E-02  -3.11807555E-04
   5.10750003E-02  -3.05882364E-04
   5.11500016E-02  -2.99671607E-04
   5.12249991E-02  -2.93174759E-04
   5.13000004E-02  -2.86391441E-04
   5.13750017E-02  -2.79321452E-04
   5.14499992E-02  -2.71964789E-04
   5.15250005E-02  -2.64321599E-04
   5.16000018E-02  -2.56392232E-04
   5.16749993E-02  -2.48177181E-04
   5.17500006E-02  -2.39677101E-04
   5.18250018E-02  -2.30892852E-04
   5.18999994E-02  -2.21825481E-04
   5.19750006E-02  -2.12476225E-04
   5.20499982E-02  -2.02846510E-04
   5.21249995E-02  -1.92937950E-04
   5.22000007E-02  -1.82752323E-04
   5.22749983E-02  -1.72291620E-04
   5.23499995E-02  -1.61557997E-04
   5.24250008E-02  -1.50553882E-04
   5.24999984E-02  -1.39281809E-04
   5.25749996E-02  -1.27744555E-04
   5.26500009E-02  -1.15945084E-04
   5.27249984E-02  -1.03886574E-04
   5.27999997E-02  -9.15724013E-05
   5.28750010E-02  -7.90061167E-05
   5.29499985E-02  -6.61915110E-05
   5.30249998E-02  -5.31325531E-05
   5.31000011E-02  -3.98334305E-05
   5.31749986E-02  -2.62985341E-05
   5.32499999E-02  -1.25324532E-05
   5.33250012E-02   1.46001526E-06
   5.33999987E-02   1.56738661E-05
   5.34750000E-02   3.01038835E-05
   5.35500012E-02   4.47446509E-05
   5.36249988E-02   5.95905367E-05
   5.37000000E-02   7.46357182E-05
   5.37750013E-02   8.98741637E-05
   5.38499989E-02   1.05299623E-04
   5.39250001E-02   1.20905643E-04
   5.40000014E-02   1.36685587E-04
   5.40749989E-02   1.52632580E-04
   5.41500002E-02   1.68739585E-04
   5.42250015E-02   1.84999328E-04
   5.42999990E-02   2.01404357E-04
   5.43750003E-02   2.17946988E-04
   5.44500016E-02   2.34619380E-04
   5.45249991E-02   2.51413469E-04
   5.46000004E-02   2.68321048E-04
   5.46750017E-02   2.85333605E-04
   5.47499992E-02   3.02442553E-04
   5.48250005E-02   3.19638988E-04
   5.49000017E-02   3.36914003E-04
   5.49749993E-02   3.54258344E-04
   5.50500005E-02   3.71662638E-04
   5.51250018E-02   3.89117311E-04
   5.51999994E-02   4.06612642E-04
   5.52750006E-02   4.24138707E-04
   5.53499982E-02   4.41685377E-04
   5.54249994E-02   4.59242467E-04
   5.55000007E-02   4.76799585E-04
   5.55749983E-02   4.94346081E-04
   5.56499995E-02   5.11871243E-04
   5.57250008E-02   5.29364217E-04
   5.57999983E-02   5.46813942E-04
   5.58749996E-02   5.64209244E-04
   5.59500009E-02   5.81538770E-04
   5.60249984E-02   5.98791114E-04
   5.60999997E-02   6.15954632E-04
   5.61750010E-02   6.33017567E-04
   5.62499985E-02   6.49968104E-04
   5.63249998E-02   6.66794309E-04
   5.64000010E-02   6.83484192E-04
   5.64749986E-02   7.00025470E-04
   5.65499999E-02   7.16405862E-04
   5.66250011E-02   7.32612971E-04
   5.66999987E-02   7.48634338E-04
   5.67749999E-02   7.64457509E-04
   5.68500012E-02   7.80069793E-04
   5.69249988E-02   7.95458385E-04
   5.70000000E-02   8.10610713E-04
   5.70750013E-02   8.25513853E-04
   5.71499988E-02   8.40154942E-04
   5.72250001E-02   8.54521117E-04
   5.73000014E-02   8.68599513E-04
   5.73749989E-02   8.82376975E-04
   5.74500002E-02   8.95840523E-04
   5.75250015E-02   9.08977236E-04
   5.75999990E-02   9.21774074E-04
   5.76750003E-02   9.34218056E-04
   5.77500015E-02   9.46296146E-04
   5.78249991E-02   9.57995246E-04
   5.79000004E-02   9.69302608E-04
   5.79750016E-02   9.80205135E-04
   5.80499992E-02   9.90690081E-04
   5.81250004E-02   1.00074476E-03
   5.82000017E-02   1.01035612E-03
   5.82749993E-02   1.01951160E-03
   5.83500005E-02   1.02819852E-03
   5.84250018E-02   1.03640452E-03
   5.84999993E-02   1.04411703E-03
   5.85750006E-02   1.05132372E-03
   5.86499982E-02   1.05801248E-03
   5.87249994E-02   1.06417132E-03
   5.88000007E-02   1.06978824E-03
   5.88749982E-02   1.07485161E-03
   5.89499995E-02   1.07934966E-03
   5.90250008E-02   1.08327088E-03
   5.90999983E-02   1.08660420E-03
   5.91749996E-02   1.08933845E-03
   5.92500009E-02   1.09146279E-03
   5.93249984E-02   1.09296641E-03
   5.93999997E-02   1.09383906E-03
   5.94750009E-02   1.09407038E-03
   5.95499985E-02   1.09365035E-03
   5.96249998E-02   1.09256955E-03
   5.97000010E-02   1.09081832E-03
   5.97749986E-02   1.08838757E-03
   5.98499998E-02   1.08526833E-03
   5.99250011E-02   1.08145201E-03
   5.99999987E-02   1.07693020E-03
   6.00749999E-02   1.07169512E-03
   6.01500012E-02   1.06573896E-03
   6.02249987E-02   1.05905440E-03
   6.03000000E-02   1.05163455E-03
   6.03750013E-02   1.04347279E-03
   6.04499988E-02   1.03456283E-03
   6.05250001E-02   1.02489896E-03
   6.06000014E-02   1.01447548E-03
   6.06749989E-02   1.00328750E-03
   6.07500002E-02   9.91330249E-04
   6.08250014E-02   9.78599535E-04
   6.08999990E-02   9.65091574E-04
   6.09750003E-02   9.50802874E-04
   6.10500015E-02   9.35730583E-04
   6.11249991E-02   9.19872196E-04
   6.12000003E-02   9.03225795E-04
   6.12750016E-02   8.85789748E-04
   6.13499992E-02   8.67562951E-04
   6.14250004E-02   8.48544994E-04
   6.15000017E-02   8.28735821E-04
   6.15749992E-02   8.08135897E-04
   6.16500005E-02   7.86746095E-04
   6.17250018E-02   7.64568045E-04
   6.17999993E-02   7.41603726E-04
   6.18750006E-02   7.17855757E-04
   6.19499981E-02   6.93327282E-04
   6.20249994E-02   6.68021967E-04
   6.21000007E-02   6.41944061E-04
   6.21749982E-02   6.15098397E-04
   6.22499995E-02   5.87490445E-04
   6.23250008E-02   5.59126085E-04
   6.23999983E-02   5.30011894E-04
   6.24749996E-02   5.00155031E-04
   6.25500008E-02   4.69563209E-04
   6.26249984E-02   4.38244839E-04
   6.27000034E-02   4.06208797E-04
   6.27750009E-02   3.73464689E-04
   6.28499985E-02   3.40022612E-04
   6.29250035E-02   3.05893394E-04
   6.30000010E-02   2.71088385E-04
   6.30749986E-02   2.35619635E-04
   6.31500036E-02   1.99499715E-04
   6.32250011E-02   1.62741853E-04
   6.32999986E-02   1.25359918E-04
   6.33750036E-02   8.73683894E-05
   6.34500012E-02   4.87823454E-05
   6.35249987E-02   9.61749083E-06
   6.36000037E-02  -3.01098662E-05
   6.36750013E-02  -7.03827827E-05
   6.37499988E-02  -1.11183697E-04
   6.38249964E-02  -1.52494467E-04
   6.39000013E-02  -1.94296328E-04
   6.39749989E-02  -2.36569962E-04
   6.40499964E-02  -2.79295375E-04
   6.41250014E-02  -3.22452048E-04
   6.41999990E-02  -3.66018765E-04