   0.00000000       0.00000000    
   7.50000036E-05   0.00000000    
   1.50000007E-04   0.00000000    
   2.24999996E-04   0.00000000    
   3.00000014E-04  -2.93085532E-24
   3.75000003E-04  -3.10480601E-23
   4.49999992E-04  -1.77381105E-22
   5.24999981E-04  -7.28365043E-22
   6.00000028E-04  -2.41177715E-21
   6.75000018E-04  -6.84578795E-21
   7.50000007E-04  -1.72897922E-20
   8.24999996E-04  -3.98263167E-20
   8.99999985E-04  -8.51350119E-20
   9.74999974E-04  -1.71055367E-19
   1.04999996E-03  -3.26172825E-19
   1.12499995E-03  -5.94704758E-19
   1.20000006E-03  -1.04300827E-18
   1.27500005E-03  -1.76807995E-18
   1.35000004E-03  -2.90846816E-18
   1.42500002E-03  -4.65806827E-18
   1.50000001E-03  -7.28333522E-18
   1.57500000E-03  -1.11444969E-17
   1.64999999E-03  -1.67214131E-17
   1.72499998E-03  -2.46448107E-17
   1.79999997E-03  -3.57335903E-17
   1.87499996E-03  -5.10391945E-17
   1.94999995E-03  -7.18977778E-17
   2.02500005E-03  -9.99912336E-17
   2.09999993E-03  -1.37418152E-16
   2.17500003E-03  -1.86775622E-16
   2.24999990E-03  -2.51253424E-16
   2.32500001E-03  -3.34741015E-16
   2.40000011E-03  -4.41950028E-16
   2.47499999E-03  -5.78551826E-16
   2.55000009E-03  -7.51333418E-16
   2.62499996E-03  -9.68371476E-16
   2.70000007E-03  -1.23922720E-15
   2.77499994E-03  -1.57516354E-15
   2.85000005E-03  -1.98938436E-15
   2.92499992E-03  -2.49730004E-15
   3.00000003E-03  -3.11682078E-15
   3.07499990E-03  -3.86867603E-15
   3.15000000E-03  -4.77676692E-15
   3.22500011E-03  -5.86854792E-15
   3.29999998E-03  -7.17544310E-15
   3.37500009E-03  -8.73330102E-15
   3.44999996E-03  -1.05828813E-14
   3.52500007E-03  -1.27703812E-14
   3.59999994E-03  -1.53480015E-14
   3.67500004E-03  -1.83745621E-14
   3.74999992E-03  -2.19161440E-14
   3.82500002E-03  -2.60467985E-14
   3.89999989E-03  -3.08492754E-14
   3.97500023E-03  -3.64158268E-14
   4.05000011E-03  -4.28490251E-14
   4.12499998E-03  -5.02626742E-14
   4.19999985E-03  -5.87827177E-14
   4.27500019E-03  -6.85482351E-14
   4.35000006E-03  -7.97124750E-14
   4.42499993E-03  -9.24439494E-14
   4.49999981E-03  -1.06927535E-13
   4.57500014E-03  -1.23365700E-13
   4.65000002E-03  -1.41979649E-13
   4.72499989E-03  -1.63010718E-13
   4.80000023E-03  -1.86721637E-13
   4.87500010E-03  -2.13397889E-13
   4.94999997E-03  -2.43349178E-13
   5.02499985E-03  -2.76910791E-13
   5.10000018E-03  -3.14445003E-13
   5.17500006E-03  -3.56342858E-13
   5.24999993E-03  -4.03025595E-13
   5.32499980E-03  -4.54946031E-13
   5.40000014E-03  -5.12590404E-13
   5.47500001E-03  -5.76479945E-13
   5.54999989E-03  -6.47172366E-13
   5.62500022E-03  -7.25263545E-13
   5.70000010E-03  -8.11389205E-13
   5.77499997E-03  -9.06226320E-13
   5.84999984E-03  -1.01049486E-12
   5.92500018E-03  -1.12495918E-12
   6.00000005E-03  -1.25042999E-12
   6.07499992E-03  -1.38776501E-12
   6.14999980E-03  -1.53787118E-12
   6.22500014E-03  -1.70170540E-12
   6.30000001E-03  -1.88027610E-12
   6.37499988E-03  -2.07464471E-12
   6.45000022E-03  -2.28592622E-12
   6.52500009E-03  -2.51528984E-12
   6.59999996E-03  -2.76396028E-12
   6.67499984E-03  -3.03321886E-12
   6.75000018E-03  -3.32440304E-12
   6.82500005E-03  -3.63890775E-12
   6.89999992E-03  -3.97818367E-12
   6.97499979E-03  -4.34373978E-12
   7.05000013E-03  -4.73714080E-12
   7.12500000E-03  -5.16000871E-12
   7.19999988E-03  -5.61401923E-12
   7.27500021E-03  -6.10090407E-12
   7.35000009E-03  -6.62244478E-12
   7.42499996E-03  -7.18047583E-12
   7.49999983E-03  -7.77688157E-12
   7.57500017E-03  -8.41359100E-12
   7.65000004E-03  -9.09257739E-12
   7.72499992E-03  -9.81585559E-12
   7.79999979E-03  -1.05854778E-11
   7.87500013E-03  -1.14035283E-11
   7.95000046E-03  -1.22721191E-11
   8.02499987E-03  -1.31933874E-11
   8.10000021E-03  -1.41694868E-11
   8.17499962E-03  -1.52025840E-11
   8.24999996E-03  -1.62948526E-11
   8.32500029E-03  -1.74484663E-11
   8.39999970E-03  -1.86655864E-11
   8.47500004E-03  -1.99483624E-11
   8.55000038E-03  -2.12989158E-11
   8.62499978E-03  -2.27193316E-11
   8.70000012E-03  -2.42116553E-11
   8.77500046E-03  -2.57778746E-11
   8.84999987E-03  -2.74199170E-11
   8.92500021E-03  -2.91396247E-11
   8.99999961E-03  -3.09387620E-11
   9.07499995E-03  -3.28189767E-11
   9.15000029E-03  -3.47818094E-11
   9.22499970E-03  -3.68286721E-11
   9.30000003E-03  -3.89608311E-11
   9.37500037E-03  -4.11793932E-11
   9.44999978E-03  -4.34852883E-11
   9.52500012E-03  -4.58792553E-11
   9.60000046E-03  -4.83618180E-11
   9.67499986E-03  -5.09332784E-11
   9.75000020E-03  -5.35937024E-11
   9.82499961E-03  -5.63428817E-11
   9.89999995E-03  -5.91803412E-11
   9.97500028E-03  -6.21052793E-11
   1.00499997E-02  -6.51165788E-11
   1.01250000E-02  -6.82128104E-11
   1.02000004E-02  -7.13921283E-11
   1.02749998E-02  -7.46523607E-11
   1.03500001E-02  -7.79908776E-11
   1.04250005E-02  -8.14046539E-11
   1.04999999E-02  -8.48902268E-11
   1.05750002E-02  -8.84436274E-11
   1.06499996E-02  -9.20604218E-11
   1.07249999E-02  -9.57356555E-11
   1.08000003E-02  -9.94638469E-11
   1.08749997E-02  -1.03238924E-10
   1.09500000E-02  -1.07054275E-10
   1.10250004E-02  -1.10902676E-10
   1.10999998E-02  -1.14776286E-10
   1.11750001E-02  -1.18666632E-10
   1.12500004E-02  -1.22564597E-10
   1.13249999E-02  -1.26460370E-10
   1.14000002E-02  -1.30343430E-10
   1.14749996E-02  -1.34202593E-10
   1.15499999E-02  -1.38025896E-10
   1.16250003E-02  -1.41800696E-10
   1.16999997E-02  -1.45513573E-10
   1.17750000E-02  -1.49150331E-10
   1.18500004E-02  -1.52696036E-10
   1.19249998E-02  -1.56134924E-10
   1.20000001E-02  -1.59450453E-10
   1.20750004E-02  -1.62625330E-10
   1.21499998E-02  -1.65641445E-10
   1.22250002E-02  -1.68479897E-10
   1.22999996E-02  -1.71120978E-10
   1.23749999E-02  -1.73544193E-10
   1.24500003E-02  -1.75728307E-10
   1.25249997E-02  -1.77651241E-10
   1.26000000E-02  -1.79290166E-10
   1.26750004E-02  -1.80621587E-10
   1.27499998E-02  -1.81621218E-10
   1.28250001E-02  -1.82264120E-10
   1.29000004E-02  -1.82524620E-10
   1.29749998E-02  -1.82376447E-10
   1.30500002E-02  -1.81792678E-10
   1.31249996E-02  -1.80745821E-10
   1.31999999E-02  -1.79207829E-10
   1.32750003E-02  -1.77150211E-10
   1.33499997E-02  -1.74544032E-10
   1.34250000E-02  -1.71359898E-10
   1.35000004E-02  -1.67568112E-10
   1.35749998E-02  -1.63138780E-10
   1.36500001E-02  -1.58041746E-10
   1.37250004E-02  -1.52246701E-10
   1.37999998E-02  -1.45723378E-10
   1.38750002E-02  -1.38441494E-10
   1.39499996E-02  -1.30370728E-10
   1.40249999E-02  -1.21481047E-10
   1.41000003E-02  -1.11742851E-10
   1.41749997E-02  -1.01126822E-10
   1.42500000E-02  -8.96041158E-11
   1.43250003E-02  -7.71465669E-11
   1.43999998E-02  -6.37267322E-11
   1.44750001E-02  -4.93179872E-11
   1.45500004E-02  -3.38947516E-11
   1.46249998E-02  -1.74324374E-11
   1.47000002E-02   9.22602855E-14
   1.47749996E-02   1.87012281E-11
   1.48499999E-02   3.84147957E-11
   1.49250003E-02   5.92516938E-11
   1.49999997E-02   8.12288223E-11
   1.50750000E-02   1.04361027E-10
   1.51500003E-02   1.28661110E-10
   1.52249997E-02   1.54139507E-10
   1.53000001E-02   1.80804136E-10
   1.53750004E-02   2.08660339E-10
   1.54499998E-02   2.37710573E-10
   1.55250002E-02   2.67954298E-10
   1.55999996E-02   2.99387709E-10
   1.56750008E-02   3.32003702E-10
   1.57500003E-02   3.65791675E-10
   1.58249997E-02   4.00737304E-10
   1.59000009E-02   4.36822217E-10
   1.59750003E-02   4.74023931E-10
   1.60499997E-02   5.12315801E-10
   1.61249992E-02   5.51666435E-10
   1.62000004E-02   5.92040084E-10
   1.62749998E-02   6.33395836E-10
   1.63499992E-02   6.75688006E-10
   1.64250005E-02   7.18865356E-10
   1.64999999E-02   7.62871433E-10
   1.65749993E-02   8.07644229E-10
   1.66500006E-02   8.53115911E-10
   1.67250000E-02   8.99212704E-10
   1.67999994E-02   9.45854728E-10
   1.68750007E-02   9.92955829E-10
   1.69500001E-02   1.04042364E-09
   1.70249995E-02   1.08815890E-09
   1.71000008E-02   1.13605603E-09
   1.71750002E-02   1.18400234E-09
   1.72499996E-02   1.23187849E-09
   1.73250008E-02   1.27955824E-09
   1.74000002E-02   1.32690758E-09
   1.74749997E-02   1.37378597E-09
   1.75500009E-02   1.42004508E-09
   1.76250003E-02   1.46552959E-09
   1.76999997E-02   1.51007673E-09
   1.77749991E-02   1.55351620E-09
   1.78500004E-02   1.59567026E-09
   1.79249998E-02   1.63635416E-09
   1.79999992E-02   1.67537506E-09
   1.80750005E-02   1.71253345E-09
   1.81499999E-02   1.74762183E-09
   1.82249993E-02   1.78042581E-09
   1.83000006E-02   1.81072368E-09
   1.83750000E-02   1.83828719E-09
   1.84499994E-02   1.86288074E-09
   1.85250007E-02   1.88426230E-09
   1.86000001E-02   1.90218330E-09
   1.86749995E-02   1.91638838E-09
   1.87500007E-02   1.92661642E-09
   1.88250002E-02   1.93260030E-09
   1.88999996E-02   1.93406779E-09
   1.89750008E-02   1.93074112E-09
   1.90500002E-02   1.92233784E-09
   1.91249996E-02   1.90857086E-09
   1.92000009E-02   1.88914906E-09
   1.92750003E-02   1.86377713E-09
   1.93499997E-02   1.83215709E-09
   1.94249991E-02   1.79398818E-09
   1.95000004E-02   1.74896730E-09
   1.95749998E-02   1.69678949E-09
   1.96499992E-02   1.63714864E-09
   1.97250005E-02   1.56973845E-09
   1.97999999E-02   1.49425217E-09
   1.98749993E-02   1.41038492E-09
   1.99500006E-02   1.31783218E-09
   2.00250000E-02   1.21629262E-09
   2.00999994E-02   1.10546727E-09
   2.01750007E-02   9.85061033E-10
   2.02500001E-02   8.54783744E-10
   2.03249995E-02   7.14349691E-10
   2.04000007E-02   5.63481040E-10
   2.04750001E-02   4.01906425E-10
   2.05499995E-02   2.29361974E-10
   2.06250008E-02   4.55940979E-11
   2.07000002E-02  -1.49640800E-10
   2.07749996E-02  -3.56575824E-10
   2.08500009E-02  -5.75431647E-10
   2.09250003E-02  -8.06415212E-10
   2.09999997E-02  -1.04971987E-09
   2.10749991E-02  -1.30552336E-09
   2.11500004E-02  -1.57398561E-09
   2.12249998E-02  -1.85524995E-09
   2.12999992E-02  -2.14944085E-09
   2.13750005E-02  -2.45666243E-09
   2.14499999E-02  -2.77699708E-09
   2.15249993E-02  -3.11050519E-09
   2.16000006E-02  -3.45722362E-09
   2.16750000E-02  -3.81716347E-09
   2.17499994E-02  -4.19031121E-09
   2.18250006E-02  -4.57662397E-09
   2.19000001E-02  -4.97603159E-09
   2.19749995E-02  -5.38843326E-09
   2.20500007E-02  -5.81369797E-09
   2.21250001E-02  -6.25166097E-09
   2.21999995E-02  -6.70212552E-09
   2.22750008E-02  -7.16485937E-09
   2.23500002E-02  -7.63959385E-09
   2.24249996E-02  -8.12602341E-09
   2.25000009E-02  -8.62380389E-09
   2.25750003E-02  -9.13255427E-09
   2.26499997E-02  -9.65184999E-09
   2.27249991E-02  -1.01812256E-08
   2.28000004E-02  -1.07201723E-08
   2.28749998E-02  -1.12681402E-08
   2.29499992E-02  -1.18245334E-08
   2.30250005E-02  -1.23887078E-08
   2.30999999E-02  -1.29599780E-08
   2.31749993E-02  -1.35376093E-08
   2.32500006E-02  -1.41208165E-08
   2.33250000E-02  -1.47087702E-08
   2.33999994E-02  -1.53005875E-08
   2.34750006E-02  -1.58953366E-08
   2.35500000E-02  -1.64920380E-08
   2.36249994E-02  -1.70896595E-08
   2.37000007E-02  -1.76871158E-08
   2.37750001E-02  -1.82832718E-08
   2.38499995E-02  -1.88769427E-08
   2.39250008E-02  -1.94668903E-08
   2.40000002E-02  -2.00518233E-08
   2.40749996E-02  -2.06304005E-08
   2.41500009E-02  -2.12012257E-08
   2.42250003E-02  -2.17628564E-08
   2.42999997E-02  -2.23137970E-08
   2.43749991E-02  -2.28525039E-08
   2.44500004E-02  -2.33773783E-08
   2.45249998E-02  -2.38867752E-08
   2.45999992E-02  -2.43790037E-08
   2.46750005E-02  -2.48523211E-08
   2.47499999E-02  -2.53049475E-08
   2.48249993E-02  -2.57350496E-08
   2.49000005E-02  -2.61407500E-08
   2.49749999E-02  -2.65201354E-08
   2.50499994E-02  -2.68712466E-08
   2.51250006E-02  -2.71920921E-08
   2.52000000E-02  -2.74806382E-08
   2.52749994E-02  -2.77348207E-08
   2.53500007E-02  -2.79525416E-08
   2.54250001E-02  -2.81316765E-08
   2.54999995E-02  -2.82700636E-08
   2.55750008E-02  -2.83655179E-08
   2.56500002E-02  -2.84158403E-08
   2.57249996E-02  -2.84188122E-08
   2.58000009E-02  -2.83721970E-08
   2.58750003E-02  -2.82737442E-08
   2.59499997E-02  -2.81211907E-08
   2.60249991E-02  -2.79122734E-08
   2.61000004E-02  -2.76447256E-08
   2.61749998E-02  -2.73162790E-08
   2.62499992E-02  -2.69246723E-08
   2.63250005E-02  -2.64676618E-08
   2.63999999E-02  -2.59430131E-08
   2.64749993E-02  -2.53485055E-08
   2.65500005E-02  -2.46819507E-08
   2.66249999E-02  -2.39411850E-08
   2.66999993E-02  -2.31240715E-08
   2.67750006E-02  -2.22285159E-08
   2.68500000E-02  -2.12524682E-08
   2.69249994E-02  -2.01939265E-08
   2.70000007E-02  -1.90509386E-08
   2.70750001E-02  -1.78216180E-08
   2.71499995E-02  -1.65041385E-08
   2.72250008E-02  -1.50967434E-08
   2.73000002E-02  -1.35977603E-08
   2.73749996E-02  -1.20055939E-08
   2.74500009E-02  -1.03187281E-08
   2.75250003E-02  -8.53574722E-09
   2.75999997E-02  -6.65534117E-09
   2.76749991E-02  -4.67629757E-09
   2.77500004E-02  -2.59751931E-09
   2.78249998E-02  -4.18035551E-10
   2.78999992E-02   1.86300908E-09
   2.79750004E-02   4.24633484E-09
   2.80499998E-02   6.73252742E-09
   2.81249993E-02   9.32202759E-09
   2.82000005E-02   1.20151231E-08
   2.82749999E-02   1.48119490E-08
   2.83499993E-02   1.77124768E-08
   2.84250006E-02   2.07165129E-08
   2.85000000E-02   2.38236737E-08
   2.85749994E-02   2.70334102E-08
   2.86500007E-02   3.03449852E-08
   2.87250001E-02   3.37574519E-08
   2.87999995E-02   3.72696825E-08
   2.88750008E-02   4.08803409E-08
   2.89500002E-02   4.45878747E-08
   2.90249996E-02   4.83905183E-08
   2.91000009E-02   5.22862891E-08
   2.91750003E-02   5.62729667E-08
   2.92499997E-02   6.03481070E-08
   2.93249991E-02   6.45090381E-08
   2.94000003E-02   6.87528328E-08
   2.94749998E-02   7.30763290E-08
   2.95499992E-02   7.74761091E-08
   2.96250004E-02   8.19484995E-08
   2.96999998E-02   8.64895924E-08
   2.97749992E-02   9.10951883E-08
   2.98500005E-02   9.57608464E-08
   2.99249999E-02   1.00481849E-07
   2.99999993E-02   1.05253228E-07
   3.00750006E-02   1.10069720E-07
   3.01500000E-02   1.14925811E-07
   3.02249994E-02   1.19815709E-07
   3.03000007E-02   1.24733333E-07
   3.03750001E-02   1.29672358E-07
   3.04499995E-02   1.34626148E-07
   3.05250008E-02   1.39587840E-07
   3.06000002E-02   1.44550242E-07
   3.06749996E-02   1.49505951E-07
   3.07500008E-02   1.54447250E-07
   3.08250003E-02   1.59366152E-07
   3.08999997E-02   1.64254431E-07
   3.09749991E-02   1.69103600E-07
   3.10500003E-02   1.73904880E-07
   3.11249997E-02   1.78649245E-07
   3.11999992E-02   1.83327472E-07
   3.12750004E-02   1.87930041E-07
   3.13500017E-02   1.92447217E-07
   3.14249992E-02   1.96868996E-07
   3.15000005E-02   2.01185230E-07
   3.15750018E-02   2.05385447E-07
   3.16499993E-02   2.09459017E-07
   3.17250006E-02   2.13395154E-07
   3.18000019E-02   2.17182830E-07
   3.18749994E-02   2.20810833E-07
   3.19500007E-02   2.24267779E-07
   3.20249982E-02   2.27542188E-07
   3.20999995E-02   2.30622319E-07
   3.21750008E-02   2.33496408E-07
   3.22499983E-02   2.36152502E-07
   3.23249996E-02   2.38578536E-07
   3.24000008E-02   2.40762404E-07
   3.24749984E-02   2.42691840E-07
   3.25499997E-02   2.44354624E-07
   3.26250009E-02   2.45738363E-07
   3.26999985E-02   2.46830723E-07
   3.27749997E-02   2.47619283E-07
   3.28500010E-02   2.48091709E-07
   3.29249986E-02   2.48235580E-07
   3.29999998E-02   2.48038617E-07
   3.30750011E-02   2.47488543E-07
   3.31499986E-02   2.46573137E-07
   3.32249999E-02   2.45280319E-07
   3.33000012E-02   2.43598208E-07
   3.33749987E-02   2.41514897E-07
   3.34500000E-02   2.39018675E-07
   3.35250013E-02   2.36098131E-07
   3.35999988E-02   2.32742011E-07
   3.36750001E-02   2.28939228E-07
   3.37500013E-02   2.24678985E-07
   3.38249989E-02   2.19950778E-07
   3.39000002E-02   2.14744361E-07
   3.39750014E-02   2.09049844E-07
   3.40499990E-02   2.02857677E-07
   3.41250002E-02   1.96158709E-07
   3.42000015E-02   1.88944199E-07
   3.42749991E-02   1.81205749E-07
   3.43500003E-02   1.72935472E-07
   3.44250016E-02   1.64125979E-07
   3.44999991E-02   1.54770333E-07
   3.45750004E-02   1.44862156E-07
   3.46500017E-02   1.34395606E-07
   3.47249992E-02   1.23365439E-07
   3.48000005E-02   1.11766987E-07
   3.48750018E-02   9.95962068E-08
   3.49499993E-02   8.68497878E-08
   3.50250006E-02   7.35250083E-08
   3.51000018E-02   5.96198717E-08
   3.51749994E-02   4.51331736E-08
   3.52500007E-02   3.00643919E-08
   3.53249982E-02   1.44137919E-08
   3.53999995E-02  -1.81748516E-09
   3.54750007E-02  -1.86275653E-08
   3.55499983E-02  -3.60136916E-08
   3.56249996E-02  -5.39721974E-08
   3.57000008E-02  -7.24985512E-08
   3.57749984E-02  -9.15873315E-08
   3.58499996E-02  -1.11232161E-07
   3.59250009E-02  -1.31425693E-07
   3.59999985E-02  -1.52159615E-07
   3.60749997E-02  -1.73424610E-07
   3.61500010E-02  -1.95210376E-07
   3.62249985E-02  -2.17505573E-07
   3.62999998E-02  -2.40297823E-07
   3.63750011E-02  -2.63573668E-07
   3.64499986E-02  -2.87318642E-07
   3.65249999E-02  -3.11517113E-07
   3.66000012E-02  -3.36152368E-07
   3.66749987E-02  -3.61206673E-07
   3.67500000E-02  -3.86661100E-07
   3.68250012E-02  -4.12495581E-07
   3.68999988E-02  -4.38688971E-07
   3.69750001E-02  -4.65218989E-07
   3.70500013E-02  -4.92062270E-07
   3.71249989E-02  -5.19194145E-07
   3.72000001E-02  -5.46588922E-07
   3.72750014E-02  -5.74219825E-07
   3.73499990E-02  -6.02058776E-07
   3.74250002E-02  -6.30076727E-07
   3.75000015E-02  -6.58243380E-07
   3.75749990E-02  -6.86527414E-07
   3.76500003E-02  -7.14896373E-07
   3.77250016E-02  -7.43316548E-07
   3.77999991E-02  -7.71753434E-07
   3.78750004E-02  -8.00171222E-07
   3.79500017E-02  -8.28533132E-07
   3.80249992E-02  -8.56801364E-07
   3.81000005E-02  -8.84936981E-07
   3.81750017E-02  -9.12900134E-07
   3.82499993E-02  -9.40650011E-07
   3.83250006E-02  -9.68144832E-07
   3.84000018E-02  -9.95341907E-07
   3.84749994E-02  -1.02219758E-06
   3.85500006E-02  -1.04866740E-06
   3.86249982E-02  -1.07470612E-06
   3.86999995E-02  -1.10026781E-06
   3.87750007E-02  -1.12530552E-06
   3.88499983E-02  -1.14977161E-06
   3.89249995E-02  -1.17361799E-06
   3.90000008E-02  -1.19679567E-06
   3.90749983E-02  -1.21925530E-06
   3.91499996E-02  -1.24094686E-06
   3.92250009E-02  -1.26181988E-06
   3.92999984E-02  -1.28182353E-06
   3.93749997E-02  -1.30090655E-06
   3.94500010E-02  -1.31901709E-06
   3.95249985E-02  -1.33610331E-06
   3.95999998E-02  -1.35211326E-06
   3.96750011E-02  -1.36699452E-06
   3.97499986E-02  -1.38069470E-06
   3.98249999E-02  -1.39316148E-06
   3.99000011E-02  -1.40434247E-06
   3.99749987E-02  -1.41418548E-06
   4.00500000E-02  -1.42263843E-06
   4.01250012E-02  -1.42964950E-06
   4.01999988E-02  -1.43516695E-06
   4.02750000E-02  -1.43913985E-06
   4.03500013E-02  -1.44151727E-06
   4.04249988E-02  -1.44224919E-06
   4.05000001E-02  -1.44128626E-06
   4.05750014E-02  -1.43857949E-06
   4.06499989E-02  -1.43408079E-06
   4.07250002E-02  -1.42774286E-06
   4.08000015E-02  -1.41951944E-06
   4.08749990E-02  -1.40936527E-06
   4.09500003E-02  -1.39723625E-06
   4.10250016E-02  -1.38308951E-06
   4.10999991E-02  -1.36688311E-06
   4.11750004E-02  -1.34857680E-06
   4.12500016E-02  -1.32813148E-06
   4.13249992E-02  -1.30550973E-06
   4.14000005E-02  -1.28067597E-06
   4.14750017E-02  -1.25359622E-06
   4.15499993E-02  -1.22423808E-06
   4.16250005E-02  -1.19257072E-06
   4.17000018E-02  -1.15856596E-06
   4.17749994E-02  -1.12219732E-06
   4.18500006E-02  -1.08344022E-06
   4.19249982E-02  -1.04227286E-06
   4.19999994E-02  -9.98674977E-07
   4.20750007E-02  -9.52629307E-07
   4.21499982E-02  -9.04120668E-07
   4.22249995E-02  -8.53136498E-07
   4.23000008E-02  -7.99667191E-07
   4.23749983E-02  -7.43705414E-07
   4.24499996E-02  -6.85246675E-07
   4.25250009E-02  -6.24289669E-07
   4.25999984E-02  -5.60835190E-07
   4.26749997E-02  -4.94887729E-07
   4.27500010E-02  -4.26454790E-07
   4.28249985E-02  -3.55546774E-07
   4.28999998E-02  -2.82177496E-07
   4.29750010E-02  -2.06363836E-07
   4.30499986E-02  -1.28126260E-07
   4.31249999E-02  -4.74882782E-08
   4.32000011E-02   3.55230974E-08
   4.32749987E-02   1.20877402E-07
   4.33499999E-02   2.08540627E-07
   4.34250012E-02   2.98474987E-07
   4.34999987E-02   3.90639229E-07
   4.35750000E-02   4.84988391E-07
   4.36500013E-02   5.81473671E-07
   4.37249988E-02   6.80043001E-07
   4.38000001E-02   7.80640278E-07
   4.38750014E-02   8.83205360E-07
   4.39499989E-02   9.87674639E-07
   4.40250002E-02   1.09398036E-06
   4.41000015E-02   1.20205118E-06
   4.41749990E-02   1.31181196E-06
   4.42500003E-02   1.42318390E-06
   4.43250015E-02   1.53608380E-06
   4.43999991E-02   1.65042479E-06
   4.44750004E-02   1.76611627E-06
   4.45500016E-02   1.88306376E-06
   4.46249992E-02   2.00116892E-06
   4.47000004E-02   2.12033001E-06
   4.47750017E-02   2.24044129E-06
   4.48499992E-02   2.36139272E-06
   4.49250005E-02   2.48307128E-06
   4.50000018E-02   2.60536035E-06
   4.50749993E-02   2.72813918E-06
   4.51500006E-02   2.85128408E-06
   4.52249981E-02   2.97466727E-06
   4.52999994E-02   3.09815800E-06
   4.53750007E-02   3.22162214E-06
   4.54499982E-02   3.34492211E-06
   4.55249995E-02   3.46791717E-06
   4.56000008E-02   3.59046362E-06
   4.56749983E-02   3.71241458E-06
   4.57499996E-02   3.83362021E-06
   4.58250009E-02   3.95392863E-06
   4.58999984E-02   4.07318339E-06
   4.59749997E-02   4.19122807E-06
   4.60500009E-02   4.30790124E-06
   4.61249985E-02   4.42304099E-06
   4.61999997E-02   4.53648227E-06
   4.62750010E-02   4.64805771E-06
   4.63499986E-02   4.75759953E-06
   4.64249998E-02   4.86493627E-06
   4.65000011E-02   4.96989560E-06
   4.65749986E-02   5.07230425E-06
   4.66499999E-02   5.17198623E-06
   4.67250012E-02   5.26876602E-06
   4.67999987E-02   5.36246625E-06
   4.68750000E-02   5.45290914E-06
   4.69500013E-02   5.53991504E-06
   4.70249988E-02   5.62330524E-06
   4.71000001E-02   5.70290058E-06
   4.71750014E-02   5.77852143E-06
   4.72499989E-02   5.84998907E-06
   4.73250002E-02   5.91712342E-06
   4.74000014E-02   5.97974622E-06
   4.74749990E-02   6.03767967E-06
   4.75500003E-02   6.09074777E-06
   4.76250015E-02   6.13877455E-06
   4.76999991E-02   6.18158538E-06
   4.77750003E-02   6.21900745E-06
   4.78500016E-02   6.25087023E-06
   4.79249991E-02   6.27700547E-06
   4.80000004E-02   6.29724673E-06
   4.80750017E-02   6.31143030E-06
   4.81499992E-02   6.31939429E-06
   4.82250005E-02   6.32098136E-06
   4.83000018E-02   6.31603598E-06
   4.83749993E-02   6.30440627E-06
   4.84500006E-02   6.28594535E-06
   4.85250019E-02   6.26050905E-06
   4.85999994E-02   6.22795778E-06
   4.86750007E-02   6.18815693E-06
   4.87499982E-02   6.14097507E-06
   4.88249995E-02   6.08628807E-06
   4.89000008E-02   6.02397449E-06
   4.89749983E-02   5.95391930E-06
   4.90499996E-02   5.87601335E-06
   4.91250008E-02   5.79015250E-06
   4.91999984E-02   5.69623944E-06
   4.92749996E-02   5.59418413E-06
   4.93500009E-02   5.48390108E-06
   4.94249985E-02   5.36531297E-06
   4.94999997E-02   5.23834842E-06
   4.95750010E-02   5.10294376E-06
   4.96499985E-02   4.95904305E-06
   4.97249998E-02   4.80659855E-06
   4.98000011E-02   4.64556933E-06
   4.98749986E-02   4.47592311E-06
   4.99499999E-02   4.29763531E-06
   5.00250012E-02   4.11069050E-06
   5.00999987E-02   3.91508092E-06
   5.01750000E-02   3.71080932E-06
   5.02500013E-02   3.49788638E-06
   5.03249988E-02   3.27633165E-06
   5.04000001E-02   3.04617515E-06
   5.04750013E-02   2.80745530E-06
   5.05499989E-02   2.56022167E-06
   5.06250001E-02   2.30453338E-06
   5.07000014E-02   2.04045841E-06
   5.07749990E-02   1.76807464E-06
   5.08500002E-02   1.48747074E-06
   5.09250015E-02   1.19874710E-06
   5.09999990E-02   9.02013653E-07
   5.10750003E-02   5.97389658E-07
   5.11500016E-02   2.85005655E-07
   5.12249991E-02  -3.49959990E-08
   5.13000004E-02  -3.62461975E-07
   5.13750017E-02  -6.97230689E-07
   5.14499992E-02  -1.03912737E-06
   5.15250005E-02  -1.38796634E-06
   5.16000018E-02  -1.74355148E-06
   5.16749993E-02  -2.10567600E-06
   5.17500006E-02  -2.47412254E-06
   5.18250018E-02  -2.84866201E-06
   5.18999994E-02  -3.22905430E-06
   5.19750006E-02  -3.61504817E-06
   5.20499982E-02  -4.00638191E-06
   5.21249995E-02  -4.40278245E-06
   5.22000007E-02  -4.80396693E-06
   5.22749983E-02  -5.20964159E-06
   5.23499995E-02  -5.61950219E-06
   5.24250008E-02  -6.03323315E-06
   5.24999984E-02  -6.45050886E-06
   5.25749996E-02  -6.87099327E-06
   5.26500009E-02  -7.29434078E-06
   5.27249984E-02  -7.72019666E-06
   5.27999997E-02  -8.14819305E-06
   5.28750010E-02  -8.57795658E-06
   5.29499985E-02  -9.00910163E-06
   5.30249998E-02  -9.44123440E-06
   5.31000011E-02  -9.87395288E-06
   5.31749986E-02  -1.03068442E-05
   5.32499999E-02  -1.07394881E-05
   5.33250012E-02  -1.11714571E-05
   5.33999987E-02  -1.16023148E-05
   5.34750000E-02  -1.20316163E-05
   5.35500012E-02  -1.24589114E-05
   5.36249988E-02  -1.28837401E-05
   5.37000000E-02  -1.33056383E-05
   5.37750013E-02  -1.37241332E-05
   5.38499989E-02  -1.41387482E-05
   5.39250001E-02  -1.45489976E-05
   5.40000014E-02  -1.49543948E-05
   5.40749989E-02  -1.53544443E-05
   5.41500002E-02  -1.57486484E-05
   5.42250015E-02  -1.61365024E-05
   5.42999990E-02  -1.65175024E-05
   5.43750003E-02  -1.68911374E-05
   5.44500016E-02  -1.72568944E-05
   5.45249991E-02  -1.76142585E-05
   5.46000004E-02  -1.79627132E-05
   5.46750017E-02  -1.83017401E-05
   5.47499992E-02  -1.86308189E-05
   5.48250005E-02  -1.89494294E-05
   5.49000017E-02  -1.92570515E-05
   5.49749993E-02  -1.95531647E-05
   5.50500005E-02  -1.98372527E-05
   5.51250018E-02  -2.01087951E-05
   5.51999994E-02  -2.03672807E-05
   5.52750006E-02  -2.06121931E-05
   5.53499982E-02  -2.08430265E-05
   5.54249994E-02  -2.10592716E-05
   5.55000007E-02  -2.12604300E-05
   5.55749983E-02  -2.14460033E-05
   5.56499995E-02  -2.16155004E-05
   5.57250008E-02  -2.17684355E-05
   5.57999983E-02  -2.19043322E-05
   5.58749996E-02  -2.20227175E-05
   5.59500009E-02  -2.21231294E-05
   5.60249984E-02  -2.22051112E-05
   5.60999997E-02  -2.22682156E-05
   5.61750010E-02  -2.23120041E-05
   5.62499985E-02  -2.23360494E-05
   5.63249998E-02  -2.23399347E-05
   5.64000010E-02  -2.23232564E-05
   5.64749986E-02  -2.22856233E-05
   5.65499999E-02  -2.22266517E-05
   5.66250011E-02  -2.21459723E-05
   5.66999987E-02  -2.20432303E-05
   5.67749999E-02  -2.19180874E-05
   5.68500012E-02  -2.17702182E-05
   5.69249988E-02  -2.15993132E-05
   5.70000000E-02  -2.14050742E-05
   5.70750013E-02  -2.11872266E-05
   5.71499988E-02  -2.09455102E-05
   5.72250001E-02  -2.06796831E-05
   5.73000014E-02  -2.03895179E-05
   5.73749989E-02  -2.00748036E-05
   5.74500002E-02  -1.97353602E-05
   5.75250015E-02  -1.93710166E-05
   5.75999990E-02  -1.89816237E-05
   5.76750003E-02  -1.85670579E-05
   5.77500015E-02  -1.81272135E-05
   5.78249991E-02  -1.76620069E-05
   5.79000004E-02  -1.71713727E-05
   5.79750016E-02  -1.66552745E-05
   5.80499992E-02  -1.61136941E-05
   5.81250004E-02  -1.55466405E-05
   5.82000017E-02  -1.49541411E-05
   5.82749993E-02  -1.43362540E-05
   5.83500005E-02  -1.36930576E-05
   5.84250018E-02  -1.30246572E-05
   5.84999993E-02  -1.23311802E-05
   5.85750006E-02  -1.16127840E-05
   5.86499982E-02  -1.08696486E-05
   5.87249994E-02  -1.01019805E-05
   5.88000007E-02  -9.31001523E-06
   5.88749982E-02  -8.49401295E-06
   5.89499995E-02  -7.65425830E-06
   5.90250008E-02  -6.79106461E-06
   5.90999983E-02  -5.90477839E-06
   5.91749996E-02  -4.99576754E-06
   5.92500009E-02  -4.06442268E-06
   5.93249984E-02  -3.11117060E-06
   5.93999997E-02  -2.13646513E-06
   5.94750009E-02  -1.14078125E-06
   5.95499985E-02  -1.24625899E-07
   5.96249998E-02   9.11463701E-07
   5.97000010E-02   1.96692190E-06
   5.97749986E-02   3.04116202E-06
   5.98499998E-02   4.13356838E-06
   5.99250011E-02   5.24349389E-06
   5.99999987E-02   6.37026642E-06
   6.00749999E-02   7.51318703E-06
   6.01500012E-02   8.67152448E-06
   6.02249987E-02   9.84452436E-06
   6.03000000E-02   1.10314095E-05
   6.03750013E-02   1.22313695E-05
   6.04499988E-02   1.34435768E-05
   6.05250001E-02   1.46671719E-05
   6.06000014E-02   1.59012689E-05
   6.06749989E-02   1.71449556E-05
   6.07500002E-02   1.83972988E-05
   6.08250014E-02   1.96573419E-05
   6.08999990E-02   2.09241007E-05
   6.09750003E-02   2.21965711E-05
   6.10500015E-02   2.34737308E-05
   6.11249991E-02   2.47545213E-05
   6.12000003E-02   2.60378729E-05
   6.12750016E-02   2.73226960E-05
   6.13499992E-02   2.86078775E-05
   6.14250004E-02   2.98922805E-05
   6.15000017E-02   3.11747572E-05
   6.15749992E-02   3.24541397E-05
   6.16500005E-02   3.37292367E-05
   6.17250018E-02   3.49988477E-05
   6.17999993E-02   3.62617502E-05
   6.18750006E-02   3.75167110E-05
   6.19499981E-02   3.87624823E-05
   6.20249994E-02   3.99977980E-05
   6.21000007E-02   4.12213849E-05
   6.21749982E-02   4.24319587E-05
   6.22499995E-02   4.36282207E-05
   6.23250008E-02   4.48088686E-05
   6.23999983E-02   4.59725852E-05
   6.24749996E-02   4.71180465E-05
   6.25500008E-02   4.82439282E-05
   6.26249984E-02   4.93488951E-05
   6.27000034E-02   5.04316122E-05
   6.27750009E-02   5.14907370E-05
   6.28499985E-02   5.25249270E-05
   6.29250035E-02   5.35328400E-05
   6.30000010E-02   5.45131334E-05
   6.30749986E-02   5.54644685E-05
   6.31500036E-02   5.63855028E-05
   6.32250011E-02   5.72749050E-05
   6.32999986E-02   5.81313434E-05
   6.33750036E-02   5.89535011E-05
   6.34500012E-02   5.97400685E-05
   6.35249987E-02   6.04897359E-05
   6.36000037E-02   6.12012082E-05
   6.36750013E-02   6.18732010E-05
   6.37499988E-02   6.25044559E-05
   6.38249964E-02   6.30937138E-05
   6.39000013E-02   6.36397381E-05
   6.39749989E-02   6.41412989E-05
   6.40499964E-02   6.45972104E-05
   6.41250014E-02   6.50062866E-05
   6.41999990E-02   6.53673633E-05