   0.00000000       0.00000000    
   7.50000036E-05   0.00000000    
   1.50000007E-04   0.00000000    
   2.24999996E-04   0.00000000    
   3.00000014E-04  -2.74362372E-24
   3.75000003E-04  -2.84857894E-23
   4.49999992E-04  -1.59687359E-22
   5.24999981E-04  -6.44151453E-22
   6.00000028E-04  -2.09763916E-21
   6.75000018E-04  -5.86148623E-21
   7.50000007E-04  -1.45868810E-20
   8.24999996E-04  -3.31352979E-20
   8.99999985E-04  -6.99044196E-20
   9.74999974E-04  -1.38709335E-19
   1.04999996E-03  -2.61371574E-19
   1.12499995E-03  -4.71191235E-19
   1.20000006E-03  -8.17501824E-19
   1.27500005E-03  -1.37153390E-18
   1.35000004E-03  -2.23383578E-18
   1.42500002E-03  -3.54353214E-18
   1.50000001E-03  -5.48972145E-18
   1.57500000E-03  -8.32536111E-18
   1.64999999E-03  -1.23839534E-17
   1.72499998E-03  -1.80994463E-17
   1.79999997E-03  -2.60297956E-17
   1.87499996E-03  -3.68845129E-17
   1.94999995E-03  -5.15567812E-17
   2.02500005E-03  -7.11605812E-17
   2.09999993E-03  -9.70731587E-17
   2.17500003E-03  -1.30983759E-16
   2.24999990E-03  -1.74948647E-16
   2.32500001E-03  -2.31453262E-16
   2.40000011E-03  -3.03482191E-16
   2.47499999E-03  -3.94597498E-16
   2.55000009E-03  -5.09025244E-16
   2.62499996E-03  -6.51751936E-16
   2.70000007E-03  -8.28630839E-16
   2.77499994E-03  -1.04649819E-15
   2.85000005E-03  -1.31330161E-15
   2.92499992E-03  -1.63824049E-15
   3.00000003E-03  -2.03191727E-15
   3.07499990E-03  -2.50650136E-15
   3.15000000E-03  -3.07590719E-15
   3.22500011E-03  -3.75598803E-15
   3.29999998E-03  -4.56473848E-15
   3.37500009E-03  -5.52251675E-15
   3.44999996E-03  -6.65227828E-15
   3.52500007E-03  -7.97983217E-15
   3.59999994E-03  -9.53410036E-15
   3.67500004E-03  -1.13474056E-14
   3.74999992E-03  -1.34557604E-14
   3.82500002E-03  -1.58991862E-14
   3.89999989E-03  -1.87220438E-14
   3.97500023E-03  -2.19733797E-14
   4.05000011E-03  -2.57072856E-14
   4.12499998E-03  -2.99832587E-14
   4.19999985E-03  -3.48666103E-14
   4.27500019E-03  -4.04288826E-14
   4.35000006E-03  -4.67482464E-14
   4.42499993E-03  -5.39099371E-14
   4.49999981E-03  -6.20066945E-14
   4.57500014E-03  -7.11392208E-14
   4.65000002E-03  -8.14166917E-14
   4.72499989E-03  -9.29571700E-14
   4.80000023E-03  -1.05888138E-13
   4.87500010E-03  -1.20346915E-13
   4.94999997E-03  -1.36481213E-13
   5.02499985E-03  -1.54449614E-13
   5.10000018E-03  -1.74422122E-13
   5.17500006E-03  -1.96580531E-13
   5.24999993E-03  -2.21119035E-13
   5.32499980E-03  -2.48244730E-13
   5.40000014E-03  -2.78178007E-13
   5.47500001E-03  -3.11152959E-13
   5.54999989E-03  -3.47418004E-13
   5.62500022E-03  -3.87236223E-13
   5.70000010E-03  -4.30885796E-13
   5.77499997E-03  -4.78660460E-13
   5.84999984E-03  -5.30869565E-13
   5.92500018E-03  -5.87838860E-13
   6.00000005E-03  -6.49910572E-13
   6.07499992E-03  -7.17443737E-13
   6.14999980E-03  -7.90814246E-13
   6.22500014E-03  -8.70415014E-13
   6.30000001E-03  -9.56656412E-13
   6.37499988E-03  -1.04996600E-12
   6.45000022E-03  -1.15078856E-12
   6.52500009E-03  -1.25958619E-12
   6.59999996E-03  -1.37683788E-12
   6.67499984E-03  -1.50304021E-12
   6.75000018E-03  -1.63870577E-12
   6.82500005E-03  -1.78436346E-12
   6.89999992E-03  -1.94055774E-12
   6.97499979E-03  -2.10784840E-12
   7.05000013E-03  -2.28680941E-12
   7.12500000E-03  -2.47802842E-12
   7.19999988E-03  -2.68210714E-12
   7.27500021E-03  -2.89965794E-12
   7.35000009E-03  -3.13130338E-12
   7.42499996E-03  -3.37767704E-12
   7.49999983E-03  -3.63941993E-12
   7.57500017E-03  -3.91717821E-12
   7.65000004E-03  -4.21160459E-12
   7.72499992E-03  -4.52335348E-12
   7.79999979E-03  -4.85308104E-12
   7.87500013E-03  -5.20144171E-12
   7.95000046E-03  -5.56908773E-12
   8.02499987E-03  -5.95666355E-12
   8.10000021E-03  -6.36480408E-12
   8.17499962E-03  -6.79413427E-12
   8.24999996E-03  -7.24526645E-12
   8.32500029E-03  -7.71879262E-12
   8.39999970E-03  -8.21528262E-12
   8.47500004E-03  -8.73528420E-12
   8.55000038E-03  -9.27931603E-12
   8.62499978E-03  -9.84786471E-12
   8.70000012E-03  -1.04413821E-11
   8.77500046E-03  -1.10602734E-11
   8.84999987E-03  -1.17048975E-11
   8.92500021E-03  -1.23755693E-11
   8.99999961E-03  -1.30725483E-11
   9.07499995E-03  -1.37960320E-11
   9.15000029E-03  -1.45461507E-11
   9.22499970E-03  -1.53229616E-11
   9.30000003E-03  -1.61264491E-11
   9.37500037E-03  -1.69565091E-11
   9.44999978E-03  -1.78129560E-11
   9.52500012E-03  -1.86954983E-11
   9.60000046E-03  -1.96037474E-11
   9.67499986E-03  -2.05372074E-11
   9.75000020E-03  -2.14952656E-11
   9.82499961E-03  -2.24771937E-11
   9.89999995E-03  -2.34821156E-11
   9.97500028E-03  -2.45090302E-11
   1.00499997E-02  -2.55567963E-11
   1.01250000E-02  -2.66241109E-11
   1.02000004E-02  -2.77095048E-11
   1.02749998E-02  -2.88113561E-11
   1.03500001E-02  -2.99278588E-11
   1.04250005E-02  -3.10570250E-11
   1.04999999E-02  -3.21966759E-11
   1.05750002E-02  -3.33444279E-11
   1.06499996E-02  -3.44976860E-11
   1.07249999E-02  -3.56536571E-11
   1.08000003E-02  -3.68093056E-11
   1.08749997E-02  -3.79613806E-11
   1.09500000E-02  -3.91063674E-11
   1.10250004E-02  -4.02405088E-11
   1.10999998E-02  -4.13598045E-11
   1.11750001E-02  -4.24599939E-11
   1.12500004E-02  -4.35365251E-11
   1.13249999E-02  -4.45845721E-11
   1.14000002E-02  -4.55990107E-11
   1.14749996E-02  -4.65744422E-11
   1.15499999E-02  -4.75051665E-11
   1.16250003E-02  -4.83851674E-11
   1.16999997E-02  -4.92081133E-11
   1.17750000E-02  -4.99673566E-11
   1.18500004E-02  -5.06559031E-11
   1.19249998E-02  -5.12664598E-11
   1.20000001E-02  -5.17913941E-11
   1.20750004E-02  -5.22227019E-11
   1.21499998E-02  -5.25520634E-11
   1.22250002E-02  -5.27707947E-11
   1.22999996E-02  -5.28698786E-11
   1.23749999E-02  -5.28399373E-11
   1.24500003E-02  -5.26712146E-11
   1.25249997E-02  -5.23536249E-11
   1.26000000E-02  -5.18767009E-11
   1.26750004E-02  -5.12296386E-11
   1.27499998E-02  -5.04012942E-11
   1.28250001E-02  -4.93801319E-11
   1.29000004E-02  -4.81542514E-11
   1.29749998E-02  -4.67114576E-11
   1.30500002E-02  -4.50392154E-11
   1.31249996E-02  -4.31246150E-11
   1.31999999E-02  -4.09544378E-11
   1.32750003E-02  -3.85150974E-11
   1.33499997E-02  -3.57927160E-11
   1.34250000E-02  -3.27731592E-11
   1.35000004E-02  -2.94419454E-11
   1.35749998E-02  -2.57842966E-11
   1.36500001E-02  -2.17851605E-11
   1.37250004E-02  -1.74292351E-11
   1.37999998E-02  -1.27010269E-11
   1.38750002E-02  -7.58477829E-12
   1.39499996E-02  -2.06452065E-12
   1.40249999E-02   3.87587445E-12
   1.41000003E-02   1.02527336E-11
   1.41749997E-02   1.70824882E-11
   1.42500000E-02   2.43817518E-11
   1.43250003E-02   3.21672203E-11
   1.43999998E-02   4.04556041E-11
   1.44750001E-02   4.92636765E-11
   1.45500004E-02   5.86082641E-11
   1.46249998E-02   6.85061660E-11
   1.47000002E-02   7.89741120E-11
   1.47749996E-02   9.00287830E-11
   1.48499999E-02   1.01686722E-10
   1.49250003E-02   1.13964282E-10
   1.49999997E-02   1.26877675E-10
   1.50750000E-02   1.40442824E-10
   1.51500003E-02   1.54675453E-10
   1.52249997E-02   1.69590925E-10
   1.53000001E-02   1.85204255E-10
   1.53750004E-02   2.01530043E-10
   1.54499998E-02   2.18582374E-10
   1.55250002E-02   2.36374920E-10
   1.55999996E-02   2.54920834E-10
   1.56750008E-02   2.74232470E-10
   1.57500003E-02   2.94321678E-10
   1.58249997E-02   3.15199589E-10
   1.59000009E-02   3.36876471E-10
   1.59750003E-02   3.59361874E-10
   1.60499997E-02   3.82664400E-10
   1.61249992E-02   4.06791767E-10
   1.62000004E-02   4.31750607E-10
   1.62749998E-02   4.57546445E-10
   1.63499992E-02   4.84183804E-10
   1.64250005E-02   5.11666043E-10
   1.64999999E-02   5.39995049E-10
   1.65749993E-02   5.69171599E-10
   1.66500006E-02   5.99194971E-10
   1.67250000E-02   6.30063057E-10
   1.67999994E-02   6.61772082E-10
   1.68750007E-02   6.94316826E-10
   1.69500001E-02   7.27690352E-10
   1.70249995E-02   7.61884000E-10
   1.71000008E-02   7.96887278E-10
   1.71750002E-02   8.32687808E-10
   1.72499996E-02   8.69271433E-10
   1.73250008E-02   9.06621889E-10
   1.74000002E-02   9.44720857E-10
   1.74749997E-02   9.83547799E-10
   1.75500009E-02   1.02308018E-09
   1.76250003E-02   1.06329290E-09
   1.76999997E-02   1.10415888E-09
   1.77749991E-02   1.14564813E-09
   1.78500004E-02   1.18772880E-09
   1.79249998E-02   1.23036592E-09
   1.79999992E-02   1.27352251E-09
   1.80750005E-02   1.31715838E-09
   1.81499999E-02   1.36123124E-09
   1.82249993E-02   1.40569567E-09
   1.83000006E-02   1.45050338E-09
   1.83750000E-02   1.49560342E-09
   1.84499994E-02   1.54094171E-09
   1.85250007E-02   1.58646141E-09
   1.86000001E-02   1.63210256E-09
   1.86749995E-02   1.67780245E-09
   1.87500007E-02   1.72349479E-09
   1.88250002E-02   1.76911041E-09
   1.88999996E-02   1.81457716E-09
   1.89750008E-02   1.85981941E-09
   1.90500002E-02   1.90475880E-09
   1.91249996E-02   1.94931316E-09
   1.92000009E-02   1.99339745E-09
   1.92750003E-02   2.03692330E-09
   1.93499997E-02   2.07979967E-09
   1.94249991E-02   2.12193130E-09
   1.95000004E-02   2.16321983E-09
   1.95749998E-02   2.20356466E-09
   1.96499992E-02   2.24286101E-09
   1.97250005E-02   2.28100117E-09
   1.97999999E-02   2.31787456E-09
   1.98749993E-02   2.35336683E-09
   1.99500006E-02   2.38736120E-09
   2.00250000E-02   2.41973730E-09
   2.00999994E-02   2.45037235E-09
   2.01750007E-02   2.47913978E-09
   2.02500001E-02   2.50591103E-09
   2.03249995E-02   2.53055399E-09
   2.04000007E-02   2.55293453E-09
   2.04750001E-02   2.57291521E-09
   2.05499995E-02   2.59035637E-09
   2.06250008E-02   2.60511590E-09
   2.07000002E-02   2.61704880E-09
   2.07749996E-02   2.62600874E-09
   2.08500009E-02   2.63184674E-09
   2.09250003E-02   2.63441202E-09
   2.09999997E-02   2.63355160E-09
   2.10749991E-02   2.62911093E-09
   2.11500004E-02   2.62093436E-09
   2.12249998E-02   2.60886401E-09
   2.12999992E-02   2.59274158E-09
   2.13750005E-02   2.57240740E-09
   2.14499999E-02   2.54770072E-09
   2.15249993E-02   2.51846055E-09
   2.16000006E-02   2.48452503E-09
   2.16750000E-02   2.44573206E-09
   2.17499994E-02   2.40191977E-09
   2.18250006E-02   2.35292652E-09
   2.19000001E-02   2.29859087E-09
   2.19749995E-02   2.23875185E-09
   2.20500007E-02   2.17324980E-09
   2.21250001E-02   2.10192574E-09
   2.21999995E-02   2.02462291E-09
   2.22750008E-02   1.94118543E-09
   2.23500002E-02   1.85145987E-09
   2.24249996E-02   1.75529491E-09
   2.25000009E-02   1.65254155E-09
   2.25750003E-02   1.54305413E-09
   2.26499997E-02   1.42669021E-09
   2.27249991E-02   1.30331057E-09
   2.28000004E-02   1.17277954E-09
   2.28749998E-02   1.03496600E-09
   2.29499992E-02   8.89742502E-10
   2.30250005E-02   7.36987360E-10
   2.30999999E-02   5.76584058E-10
   2.31749993E-02   4.08420797E-10
   2.32500006E-02   2.32392341E-10
   2.33250000E-02   4.83994025E-11
   2.33999994E-02  -1.43651133E-10
   2.34750006E-02  -3.43845202E-10
   2.35500000E-02  -5.52261459E-10
   2.36249994E-02  -7.68970998E-10
   2.37000007E-02  -9.94036964E-10
   2.37750001E-02  -1.22751331E-09
   2.38499995E-02  -1.46944623E-09
   2.39250008E-02  -1.71987269E-09
   2.40000002E-02  -1.97881955E-09
   2.40749996E-02  -2.24630470E-09
   2.41500009E-02  -2.52233523E-09
   2.42250003E-02  -2.80690737E-09
   2.42999997E-02  -3.10000625E-09
   2.43749991E-02  -3.40160655E-09
   2.44500004E-02  -3.71167053E-09
   2.45249998E-02  -4.03014866E-09
   2.45999992E-02  -4.35697833E-09
   2.46750005E-02  -4.69208450E-09
   2.47499999E-02  -5.03537967E-09
   2.48249993E-02  -5.38676215E-09
   2.49000005E-02  -5.74611736E-09
   2.49749999E-02  -6.11331474E-09
   2.50499994E-02  -6.48821086E-09
   2.51250006E-02  -6.87064761E-09
   2.52000000E-02  -7.26045091E-09
   2.52749994E-02  -7.65743291E-09
   2.53500007E-02  -8.06138711E-09
   2.54250001E-02  -8.47209503E-09
   2.54999995E-02  -8.88931773E-09
   2.55750008E-02  -9.31280386E-09
   2.56500002E-02  -9.74228431E-09
   2.57249996E-02  -1.01774713E-08
   2.58000009E-02  -1.06180638E-08
   2.58750003E-02  -1.10637393E-08
   2.59499997E-02  -1.15141612E-08
   2.60249991E-02  -1.19689725E-08
   2.61000004E-02  -1.24278010E-08
   2.61749998E-02  -1.28902560E-08
   2.62499992E-02  -1.33559288E-08
   2.63250005E-02  -1.38243932E-08
   2.63999999E-02  -1.42952041E-08
   2.64749993E-02  -1.47678980E-08
   2.65500005E-02  -1.52419979E-08
   2.66249999E-02  -1.57170028E-08
   2.66999993E-02  -1.61923968E-08
   2.67750006E-02  -1.66676468E-08
   2.68500000E-02  -1.71421988E-08
   2.69249994E-02  -1.76154877E-08
   2.70000007E-02  -1.80869222E-08
   2.70750001E-02  -1.85558964E-08
   2.71499995E-02  -1.90217886E-08
   2.72250008E-02  -1.94839647E-08
   2.73000002E-02  -1.99417656E-08
   2.73749996E-02  -2.03945199E-08
   2.74500009E-02  -2.08415365E-08
   2.75250003E-02  -2.12821156E-08
   2.75999997E-02  -2.17155378E-08
   2.76749991E-02  -2.21410659E-08
   2.77500004E-02  -2.25579537E-08
   2.78249998E-02  -2.29654376E-08
   2.78999992E-02  -2.33627393E-08
   2.79750004E-02  -2.37490667E-08
   2.80499998E-02  -2.41236151E-08
   2.81249993E-02  -2.44855745E-08
   2.82000005E-02  -2.48341152E-08
   2.82749999E-02  -2.51684007E-08
   2.83499993E-02  -2.54875818E-08
   2.84250006E-02  -2.57908006E-08
   2.85000000E-02  -2.60771920E-08
   2.85749994E-02  -2.63458837E-08
   2.86500007E-02  -2.65959912E-08
   2.87250001E-02  -2.68266298E-08
   2.87999995E-02  -2.70369043E-08
   2.88750008E-02  -2.72259157E-08
   2.89500002E-02  -2.73927618E-08
   2.90249996E-02  -2.75365419E-08
   2.91000009E-02  -2.76563448E-08
   2.91750003E-02  -2.77512608E-08
   2.92499997E-02  -2.78203895E-08
   2.93249991E-02  -2.78628196E-08
   2.94000003E-02  -2.78776486E-08
   2.94749998E-02  -2.78639778E-08
   2.95499992E-02  -2.78209065E-08
   2.96250004E-02  -2.77475465E-08
   2.96999998E-02  -2.76430150E-08
   2.97749992E-02  -2.75064345E-08
   2.98500005E-02  -2.73369434E-08
   2.99249999E-02  -2.71336820E-08
   2.99999993E-02  -2.68958065E-08
   3.00750006E-02  -2.66224855E-08
   3.01500000E-02  -2.63129056E-08
   3.02249994E-02  -2.59662674E-08
   3.03000007E-02  -2.55817838E-08
   3.03750001E-02  -2.51586929E-08
   3.04499995E-02  -2.46962486E-08
   3.05250008E-02  -2.41937226E-08
   3.06000002E-02  -2.36504185E-08
   3.06749996E-02  -2.30656596E-08
   3.07500008E-02  -2.24387922E-08
   3.08250003E-02  -2.17691927E-08
   3.08999997E-02  -2.10562643E-08
   3.09749991E-02  -2.02994404E-08
   3.10500003E-02  -1.94981844E-08
   3.11249997E-02  -1.86519937E-08
   3.11999992E-02  -1.77603994E-08
   3.12750004E-02  -1.68229697E-08
   3.13500017E-02  -1.58393068E-08
   3.14249992E-02  -1.48090527E-08
   3.15000005E-02  -1.37318894E-08
   3.15750018E-02  -1.26075381E-08
   3.16499993E-02  -1.14357661E-08
   3.17250006E-02  -1.02163824E-08
   3.18000019E-02  -8.94924224E-09
   3.18749994E-02  -7.63424612E-09
   3.19500007E-02  -6.27134433E-09
   3.20249982E-02  -4.86053509E-09
   3.20999995E-02  -3.40186812E-09
   3.21750008E-02  -1.89544447E-09
   3.22499983E-02  -3.41417977E-10
   3.23249996E-02   1.26000343E-09
   3.24000008E-02   2.90855495E-09
   3.24749984E-02   4.60391458E-09
   3.25499997E-02   6.34570396E-09
   3.26250009E-02   8.13348855E-09
   3.26999985E-02   9.96676963E-09
   3.27749997E-02   1.18449899E-08
   3.28500010E-02   1.37675302E-08
   3.29249986E-02   1.57337077E-08
   3.29999998E-02   1.77427779E-08
   3.30750011E-02   1.97939301E-08
   3.31499986E-02   2.18862901E-08
   3.32249999E-02   2.40189166E-08
   3.33000012E-02   2.61908024E-08
   3.33749987E-02   2.84008745E-08
   3.34500000E-02   3.06479926E-08
   3.35250013E-02   3.29309486E-08
   3.35999988E-02   3.52484619E-08
   3.36750001E-02   3.75991895E-08
   3.37500013E-02   3.99817175E-08
   3.38249989E-02   4.23945643E-08
   3.39000002E-02   4.48361668E-08
   3.39750014E-02   4.73049120E-08
   3.40499990E-02   4.97991088E-08
   3.41250002E-02   5.23169916E-08
   3.42000015E-02   5.48567378E-08
   3.42749991E-02   5.74164396E-08
   3.43500003E-02   5.99941359E-08
   3.44250016E-02   6.25878016E-08
   3.44999991E-02   6.51953229E-08
   3.45750004E-02   6.78145398E-08
   3.46500017E-02   7.04432139E-08
   3.47249992E-02   7.30790433E-08
   3.48000005E-02   7.57196617E-08
   3.48750018E-02   7.83626533E-08
   3.49499993E-02   8.10055241E-08
   3.50250006E-02   8.36457090E-08
   3.51000018E-02   8.62806075E-08
   3.51749994E-02   8.89075480E-08
   3.52500007E-02   9.15237948E-08
   3.53249982E-02   9.41265696E-08
   3.53999995E-02   9.67130376E-08
   3.54750007E-02   9.92802924E-08
   3.55499983E-02   1.01825393E-07
   3.56249996E-02   1.04345347E-07
   3.57000008E-02   1.06837113E-07
   3.57749984E-02   1.09297595E-07
   3.58499996E-02   1.11723679E-07
   3.59250009E-02   1.14112183E-07
   3.59999985E-02   1.16459901E-07
   3.60749997E-02   1.18763580E-07
   3.61500010E-02   1.21019937E-07
   3.62249985E-02   1.23225661E-07
   3.62999998E-02   1.25377412E-07
   3.63750011E-02   1.27471822E-07
   3.64499986E-02   1.29505494E-07
   3.65249999E-02   1.31475005E-07
   3.66000012E-02   1.33376957E-07
   3.66749987E-02   1.35207870E-07
   3.67500000E-02   1.36964289E-07
   3.68250012E-02   1.38642761E-07
   3.68999988E-02   1.40239820E-07
   3.69750001E-02   1.41751968E-07
   3.70500013E-02   1.43175768E-07
   3.71249989E-02   1.44507723E-07
   3.72000001E-02   1.45744366E-07
   3.72750014E-02   1.46882300E-07
   3.73499990E-02   1.47918072E-07
   3.74250002E-02   1.48848258E-07
   3.75000015E-02   1.49669489E-07
   3.75749990E-02   1.50378369E-07
   3.76500003E-02   1.50971601E-07
   3.77250016E-02   1.51445889E-07
   3.77999991E-02   1.51797963E-07
   3.78750004E-02   1.52024626E-07
   3.79500017E-02   1.52122709E-07
   3.80249992E-02   1.52089086E-07
   3.81000005E-02   1.51920688E-07
   3.81750017E-02   1.51614515E-07
   3.82499993E-02   1.51167640E-07
   3.83250006E-02   1.50577193E-07
   3.84000018E-02   1.49840375E-07
   3.84749994E-02   1.48954427E-07
   3.85500006E-02   1.47916751E-07
   3.86249982E-02   1.46724759E-07
   3.86999995E-02   1.45376006E-07
   3.87750007E-02   1.43868078E-07
   3.88499983E-02   1.42198715E-07
   3.89249995E-02   1.40365742E-07
   3.90000008E-02   1.38367056E-07
   3.90749983E-02   1.36200725E-07
   3.91499996E-02   1.33864859E-07
   3.92250009E-02   1.31357737E-07
   3.92999984E-02   1.28677740E-07
   3.93749997E-02   1.25823377E-07
   3.94500010E-02   1.22793281E-07
   3.95249985E-02   1.19586204E-07
   3.95999998E-02   1.16201065E-07
   3.96750011E-02   1.12636933E-07
   3.97499986E-02   1.08892984E-07
   3.98249999E-02   1.04968535E-07
   3.99000011E-02   1.00863105E-07
   3.99749987E-02   9.65763149E-08
   4.00500000E-02   9.21079817E-08
   4.01250012E-02   8.74580550E-08
   4.01999988E-02   8.26266486E-08
   4.02750000E-02   7.76140752E-08
   4.03500013E-02   7.24207965E-08
   4.04249988E-02   6.70474662E-08
   4.05000001E-02   6.14949087E-08
   4.05750014E-02   5.57641080E-08
   4.06499989E-02   4.98562258E-08
   4.07250002E-02   4.37726229E-08
   4.08000015E-02   3.75148410E-08
   4.08749990E-02   3.10846211E-08
   4.09500003E-02   2.44838851E-08
   4.10250016E-02   1.77147434E-08
   4.10999991E-02   1.07795088E-08
   4.11750004E-02   3.68069286E-09
   4.12500016E-02  -3.57901309E-09
   4.13249992E-02  -1.09967013E-08
   4.14000005E-02  -1.85692723E-08
   4.14750017E-02  -2.62934243E-08
   4.15499993E-02  -3.41656659E-08
   4.16250005E-02  -4.21823039E-08
   4.17000018E-02  -5.03394304E-08
   4.17749994E-02  -5.86329278E-08
   4.18500006E-02  -6.70585081E-08
   4.19249982E-02  -7.56116734E-08
   4.19999994E-02  -8.42876986E-08
   4.20750007E-02  -9.30816668E-08
   4.21499982E-02  -1.01988483E-07
   4.22249995E-02  -1.11002805E-07
   4.23000008E-02  -1.20119125E-07
   4.23749983E-02  -1.29331752E-07
   4.24499996E-02  -1.38634775E-07
   4.25250009E-02  -1.48022124E-07
   4.25999984E-02  -1.57487463E-07
   4.26749997E-02  -1.67024368E-07
   4.27500010E-02  -1.76626159E-07
   4.28249985E-02  -1.86286002E-07
   4.28999998E-02  -1.95996833E-07
   4.29750010E-02  -2.05751462E-07
   4.30499986E-02  -2.15542499E-07
   4.31249999E-02  -2.25362371E-07
   4.32000011E-02  -2.35203345E-07
   4.32749987E-02  -2.45057549E-07
   4.33499999E-02  -2.54916927E-07
   4.34250012E-02  -2.64773263E-07
   4.34999987E-02  -2.74618202E-07
   4.35750000E-02  -2.84443246E-07
   4.36500013E-02  -2.94239697E-07
   4.37249988E-02  -3.03998775E-07
   4.38000001E-02  -3.13711581E-07
   4.38750014E-02  -3.23369051E-07
   4.39499989E-02  -3.32961974E-07
   4.40250002E-02  -3.42481087E-07
   4.41000015E-02  -3.51916981E-07
   4.41749990E-02  -3.61260163E-07
   4.42500003E-02  -3.70500999E-07
   4.43250015E-02  -3.79629853E-07
   4.43999991E-02  -3.88636920E-07
   4.44750004E-02  -3.97512366E-07
   4.45500016E-02  -4.06246272E-07
   4.46249992E-02  -4.14828662E-07
   4.47000004E-02  -4.23249475E-07
   4.47750017E-02  -4.31498592E-07
   4.48499992E-02  -4.39565952E-07
   4.49250005E-02  -4.47441352E-07
   4.50000018E-02  -4.55114645E-07
   4.50749993E-02  -4.62575684E-07
   4.51500006E-02  -4.69814154E-07
   4.52249981E-02  -4.76819935E-07
   4.52999994E-02  -4.83582824E-07
   4.53750007E-02  -4.90092646E-07
   4.54499982E-02  -4.96339339E-07
   4.55249995E-02  -5.02312730E-07
   4.56000008E-02  -5.08002756E-07
   4.56749983E-02  -5.13399527E-07
   4.57499996E-02  -5.18493039E-07
   4.58250009E-02  -5.23273457E-07
   4.58999984E-02  -5.27731061E-07
   4.59749997E-02  -5.31856188E-07
   4.60500009E-02  -5.35639174E-07
   4.61249985E-02  -5.39070697E-07
   4.61999997E-02  -5.42141379E-07
   4.62750010E-02  -5.44842010E-07
   4.63499986E-02  -5.47163552E-07
   4.64249998E-02  -5.49097194E-07
   4.65000011E-02  -5.50634070E-07
   4.65749986E-02  -5.51765766E-07
   4.66499999E-02  -5.52483868E-07
   4.67250012E-02  -5.52780250E-07
   4.67999987E-02  -5.52646952E-07
   4.68750000E-02  -5.52076131E-07
   4.69500013E-02  -5.51060396E-07
   4.70249988E-02  -5.49592414E-07
   4.71000001E-02  -5.47665081E-07
   4.71750014E-02  -5.45271689E-07
   4.72499989E-02  -5.42405701E-07
   4.73250002E-02  -5.39060864E-07
   4.74000014E-02  -5.35231209E-07
   4.74749990E-02  -5.30910995E-07
   4.75500003E-02  -5.26094993E-07
   4.76250015E-02  -5.20778087E-07
   4.76999991E-02  -5.14955559E-07
   4.77750003E-02  -5.08623032E-07
   4.78500016E-02  -5.01776412E-07
   4.79249991E-02  -4.94412006E-07
   4.80000004E-02  -4.86526460E-07
   4.80750017E-02  -4.78116817E-07
   4.81499992E-02  -4.69180463E-07
   4.82250005E-02  -4.59715181E-07
   4.83000018E-02  -4.49719096E-07
   4.83749993E-02  -4.39190785E-07
   4.84500006E-02  -4.28129255E-07
   4.85250019E-02  -4.16533908E-07
   4.85999994E-02  -4.04404574E-07
   4.86750007E-02  -3.91741423E-07
   4.87499982E-02  -3.78545167E-07
   4.88249995E-02  -3.64816941E-07
   4.89000008E-02  -3.50558366E-07
   4.89749983E-02  -3.35771432E-07
   4.90499996E-02  -3.20458611E-07
   4.91250008E-02  -3.04622858E-07
   4.91999984E-02  -2.88267557E-07
   4.92749996E-02  -2.71396715E-07
   4.93500009E-02  -2.54014680E-07
   4.94249985E-02  -2.36126226E-07
   4.94999997E-02  -2.17736797E-07
   4.95750010E-02  -1.98852206E-07
   4.96499985E-02  -1.79478789E-07
   4.97249998E-02  -1.59623397E-07
   4.98000011E-02  -1.39293391E-07
   4.98749986E-02  -1.18496672E-07
   4.99499999E-02  -9.72415819E-08
   5.00250012E-02  -7.55369527E-08
   5.00999987E-02  -5.33921032E-08
   5.01750000E-02  -3.08169170E-08
   5.02500013E-02  -7.82182319E-09
   5.03249988E-02   1.55823052E-08
   5.04000001E-02   3.93841333E-08
   5.04750013E-02   6.35716972E-08
   5.05499989E-02   8.81325235E-08
   5.06250001E-02   1.13053737E-07
   5.07000014E-02   1.38321852E-07
   5.07749990E-02   1.63923019E-07
   5.08500002E-02   1.89842879E-07
   5.09250015E-02   2.16066454E-07
   5.09999990E-02   2.42578324E-07
   5.10750003E-02   2.69362630E-07
   5.11500016E-02   2.96403044E-07
   5.12249991E-02   3.23682684E-07
   5.13000004E-02   3.51184241E-07
   5.13750017E-02   3.78889979E-07
   5.14499992E-02   4.06781680E-07
   5.15250005E-02   4.34840558E-07
   5.16000018E-02   4.63047598E-07
   5.16749993E-02   4.91383275E-07
   5.17500006E-02   5.19827552E-07
   5.18250018E-02   5.48360163E-07
   5.18999994E-02   5.76960133E-07
   5.19750006E-02   6.05606260E-07
   5.20499982E-02   6.34277114E-07
   5.21249995E-02   6.62950640E-07
   5.22000007E-02   6.91604498E-07
   5.22749983E-02   7.20216121E-07
   5.23499995E-02   7.48762545E-07
   5.24250008E-02   7.77220293E-07
   5.24999984E-02   8.05565776E-07
   5.25749996E-02   8.33775061E-07
   5.26500009E-02   8.61823878E-07
   5.27249984E-02   8.89687669E-07
   5.27999997E-02   9.17341765E-07
   5.28750010E-02   9.44760984E-07
   5.29499985E-02   9.71920372E-07
   5.30249998E-02   9.98794121E-07
   5.31000011E-02   1.02535671E-06
   5.31749986E-02   1.05158244E-06
   5.32499999E-02   1.07744529E-06
   5.33250012E-02   1.10291910E-06
   5.33999987E-02   1.12797761E-06
   5.34750000E-02   1.15259434E-06
   5.35500012E-02   1.17674290E-06
   5.36249988E-02   1.20039692E-06
   5.37000000E-02   1.22352981E-06
   5.37750013E-02   1.24611495E-06
   5.38499989E-02   1.26812574E-06
   5.39250001E-02   1.28953559E-06
   5.40000014E-02   1.31031788E-06
   5.40749989E-02   1.33044625E-06
   5.41500002E-02   1.34989421E-06
   5.42250015E-02   1.36863537E-06
   5.42999990E-02   1.38664382E-06
   5.43750003E-02   1.40389329E-06
   5.44500016E-02   1.42035799E-06
   5.45249991E-02   1.43601233E-06
   5.46000004E-02   1.45083095E-06
   5.46750017E-02   1.46478828E-06
   5.47499992E-02   1.47785954E-06
   5.48250005E-02   1.49001983E-06
   5.49000017E-02   1.50124504E-06
   5.49749993E-02   1.51151096E-06
   5.50500005E-02   1.52079394E-06
   5.51250018E-02   1.52907057E-06
   5.51999994E-02   1.53631800E-06
   5.52750006E-02   1.54251381E-06
   5.53499982E-02   1.54763575E-06
   5.54249994E-02   1.55166231E-06
   5.55000007E-02   1.55457269E-06
   5.55749983E-02   1.55634609E-06
   5.56499995E-02   1.55696250E-06
   5.57250008E-02   1.55640259E-06
   5.57999983E-02   1.55464761E-06
   5.58749996E-02   1.55167925E-06
   5.59500009E-02   1.54748022E-06
   5.60249984E-02   1.54203360E-06
   5.60999997E-02   1.53532324E-06
   5.61750010E-02   1.52733344E-06
   5.62499985E-02   1.51804977E-06
   5.63249998E-02   1.50745836E-06
   5.64000010E-02   1.49554592E-06
   5.64749986E-02   1.48230004E-06
   5.65499999E-02   1.46770935E-06
   5.66250011E-02   1.45176318E-06
   5.66999987E-02   1.43445163E-06
   5.67749999E-02   1.41576584E-06
   5.68500012E-02   1.39569806E-06
   5.69249988E-02   1.37424126E-06
   5.70000000E-02   1.35138941E-06
   5.70750013E-02   1.32713762E-06
   5.71499988E-02   1.30148180E-06
   5.72250001E-02   1.27441899E-06
   5.73000014E-02   1.24594726E-06
   5.73749989E-02   1.21606570E-06
   5.74500002E-02   1.18477465E-06
   5.75250015E-02   1.15207524E-06
   5.75999990E-02   1.11796999E-06
   5.76750003E-02   1.08246252E-06
   5.77500015E-02   1.04555738E-06
   5.78249991E-02   1.00726049E-06
   5.79000004E-02   9.67579012E-07
   5.79750016E-02   9.26521182E-07
   5.80499992E-02   8.84096323E-07
   5.81250004E-02   8.40315124E-07
   5.82000017E-02   7.95189521E-07
   5.82749993E-02   7.48732646E-07
   5.83500005E-02   7.00959049E-07
   5.84250018E-02   6.51884420E-07
   5.84999993E-02   6.01525528E-07
   5.85750006E-02   5.49900676E-07
   5.86499982E-02   4.97029305E-07
   5.87249994E-02   4.42932190E-07
   5.88000007E-02   3.87631360E-07
   5.88749982E-02   3.31150289E-07
   5.89499995E-02   2.73513706E-07
   5.90250008E-02   2.14747615E-07
   5.90999983E-02   1.54879231E-07
   5.91749996E-02   9.39371247E-08
   5.92500009E-02   3.19512523E-08
   5.93249984E-02  -3.10472252E-08
   5.93999997E-02  -9.50257970E-08
   5.94750009E-02  -1.59950616E-07
   5.95499985E-02  -2.25786607E-07
   5.96249998E-02  -2.92497361E-07
   5.97000010E-02  -3.60045306E-07
   5.97749986E-02  -4.28391559E-07
   5.98499998E-02  -4.97495876E-07
   5.99250011E-02  -5.67316818E-07
   5.99999987E-02  -6.37811866E-07
   6.00749999E-02  -7.08937023E-07
   6.01500012E-02  -7.80647042E-07
   6.02249987E-02  -8.52895710E-07
   6.03000000E-02  -9.25635845E-07
   6.03750013E-02  -9.98818791E-07
   6.04499988E-02  -1.07239453E-06
   6.05250001E-02  -1.14631223E-06
   6.06000014E-02  -1.22052006E-06
   6.06749989E-02  -1.29496505E-06
   6.07500002E-02  -1.36959295E-06
   6.08250014E-02  -1.44434853E-06
   6.08999990E-02  -1.51917573E-06
   6.09750003E-02  -1.59401748E-06
   6.10500015E-02  -1.66881568E-06
   6.11249991E-02  -1.74351123E-06
   6.12000003E-02  -1.81804432E-06
   6.12750016E-02  -1.89235448E-06
   6.13499992E-02  -1.96637984E-06
   6.14250004E-02  -2.04005846E-06
   6.15000017E-02  -2.11332735E-06
   6.15749992E-02  -2.18612217E-06
   6.16500005E-02  -2.25837880E-06
   6.17250018E-02  -2.33003220E-06
   6.17999993E-02  -2.40101667E-06
   6.18750006E-02  -2.47126627E-06
   6.19499981E-02  -2.54071415E-06
   6.20249994E-02  -2.60929255E-06
   6.21000007E-02  -2.67693463E-06
   6.21749982E-02  -2.74357194E-06
   6.22499995E-02  -2.80913650E-06
   6.23250008E-02  -2.87355942E-06
   6.23999983E-02  -2.93677158E-06
   6.24749996E-02  -2.99870408E-06
   6.25500008E-02  -3.05928825E-06
   6.26249984E-02  -3.11845452E-06
   6.27000034E-02  -3.17613376E-06
   6.27750009E-02  -3.23225709E-06
   6.28499985E-02  -3.28675515E-06
   6.29250035E-02  -3.33955882E-06
   6.30000010E-02  -3.39059920E-06
   6.30749986E-02  -3.43980832E-06
   6.31500036E-02  -3.48711751E-06
   6.32250011E-02  -3.53245900E-06
   6.32999986E-02  -3.57576573E-06
   6.33750036E-02  -3.61697016E-06
   6.34500012E-02  -3.65600590E-06
   6.35249987E-02  -3.69280792E-06
   6.36000037E-02  -3.72731074E-06
   6.36750013E-02  -3.75945001E-06
   6.37499988E-02  -3.78916184E-06
   6.38249964E-02  -3.81638347E-06
   6.39000013E-02  -3.84105306E-06
   6.39749989E-02  -3.86311058E-06
   6.40499964E-02  -3.88249509E-06
   6.41250014E-02  -3.89914931E-06
   6.41999990E-02  -3.91301455E-06