   0.00000000       0.00000000    
   2.09999998E-04   0.00000000    
   4.19999997E-04   0.00000000    
   6.30000024E-04   0.00000000    
   8.39999993E-04  -2.20831726E-18
   1.04999996E-03  -2.26069454E-17
   1.26000005E-03  -1.24831203E-16
   1.47000002E-03  -4.95616024E-16
   1.67999999E-03  -1.58742011E-15
   1.88999996E-03  -4.35981114E-15
   2.09999993E-03  -1.06563242E-14
   2.30999989E-03  -2.37573057E-14
   2.52000010E-03  -4.91513636E-14
   2.73000007E-03  -9.55678882E-14
   2.94000003E-03  -1.76310586E-13
   3.15000000E-03  -3.10926632E-13
   3.35999997E-03  -5.27237433E-13
   3.56999994E-03  -8.63745815E-13
   3.77999991E-03  -1.37241932E-12
   3.99000011E-03  -2.12183201E-12
   4.19999985E-03  -3.20062661E-12
   4.41000005E-03  -4.72123382E-12
   4.61999979E-03  -6.82376378E-12
   4.82999999E-03  -9.67995042E-12
   5.04000019E-03  -1.34970169E-11
   5.24999993E-03  -1.85212835E-11
   5.46000013E-03  -2.50413076E-11
   5.66999987E-03  -3.33903669E-11
   5.88000007E-03  -4.39479911E-11
   6.08999981E-03  -5.71403341E-11
   6.30000001E-03  -7.34390257E-11
   6.51000021E-03  -9.33582794E-11
   6.71999995E-03  -1.17449911E-10
   6.93000015E-03  -1.46296059E-10
   7.13999989E-03  -1.80499185E-10
   7.35000009E-03  -2.20669247E-10
   7.55999982E-03  -2.67407818E-10
   7.77000003E-03  -3.21288857E-10
   7.98000023E-03  -3.82836041E-10
   8.19000043E-03  -4.52496929E-10
   8.39999970E-03  -5.30613498E-10
   8.60999990E-03  -6.17389417E-10
   8.82000010E-03  -7.12854553E-10
   9.03000031E-03  -8.16826606E-10
   9.23999958E-03  -9.28870758E-10
   9.44999978E-03  -1.04825737E-09
   9.65999998E-03  -1.17391952E-09
   9.87000018E-03  -1.30441002E-09
   1.00800004E-02  -1.43785994E-09
   1.02899997E-02  -1.57193925E-09
   1.04999999E-02  -1.70382120E-09
   1.07100001E-02  -1.83015147E-09
   1.09200003E-02  -1.94702476E-09
   1.11300005E-02  -2.04996886E-09
   1.13399997E-02  -2.13393814E-09
   1.15499999E-02  -2.19332108E-09
   1.17600001E-02  -2.22195928E-09
   1.19700003E-02  -2.21318275E-09
   1.21799996E-02  -2.15986273E-09
   1.23899998E-02  -2.05448214E-09
   1.26000000E-02  -1.88922833E-09
   1.28100002E-02  -1.65610603E-09
   1.30200004E-02  -1.34707334E-09
   1.32299997E-02  -9.54202273E-10
   1.34399999E-02  -4.69862649E-10
   1.36500001E-02   1.13069193E-10
   1.38600003E-02   8.00978950E-10
   1.40699996E-02   1.59925795E-09
   1.42799998E-02   2.51202747E-09
   1.44900000E-02   3.54184193E-09
   1.47000002E-02   4.68937644E-09
   1.49100004E-02   5.95309890E-09
   1.51199996E-02   7.32893524E-09
   1.53299998E-02   8.80992879E-09
   1.55400001E-02   1.03859037E-08
   1.57500003E-02   1.20431283E-08
   1.59600005E-02   1.37639988E-08
   1.61700007E-02   1.55267443E-08
   1.63800009E-02   1.73051635E-08
   1.65899992E-02   1.90683895E-08
   1.67999994E-02   2.07807176E-08
   1.70099996E-02   2.24014851E-08
   1.72199998E-02   2.38850113E-08
   1.74300000E-02   2.51806291E-08
   1.76400002E-02   2.62327866E-08
   1.78500004E-02   2.69812634E-08
   1.80600006E-02   2.73614820E-08
   1.82700008E-02   2.73049352E-08
   1.84799992E-02   2.67397429E-08
   1.86899994E-02   2.55913282E-08
   1.88999996E-02   2.37832385E-08
   1.91099998E-02   2.12380940E-08
   1.93200000E-02   1.78786941E-08
   1.95300002E-02   1.36292462E-08
   1.97400004E-02   8.41674819E-09
   1.99500006E-02   2.17249485E-09
   2.01600008E-02  -5.16627408E-09
   2.03699991E-02  -1.36546188E-08
   2.05799993E-02  -2.33380462E-08
   2.07899995E-02  -3.42505366E-08
   2.09999997E-02  -4.64125343E-08
   2.12099999E-02  -5.98288707E-08
   2.14200001E-02  -7.44866711E-08
   2.16300003E-02  -9.03532538E-08
   2.18400005E-02  -1.07374071E-07
   2.20500007E-02  -1.25470734E-07
   2.22600009E-02  -1.44539129E-07
   2.24699993E-02  -1.64447670E-07
   2.26799995E-02  -1.85035759E-07
   2.28899997E-02  -2.06112475E-07
   2.30999999E-02  -2.27455530E-07
   2.33100001E-02  -2.48810551E-07
   2.35200003E-02  -2.69890648E-07
   2.37300005E-02  -2.90376562E-07
   2.39400007E-02  -3.09916999E-07
   2.41500009E-02  -3.28129858E-07
   2.43599992E-02  -3.44603421E-07
   2.45699994E-02  -3.58898603E-07
   2.47799996E-02  -3.70551618E-07
   2.49899998E-02  -3.79077164E-07
   2.52000000E-02  -3.83972321E-07
   2.54100002E-02  -3.84721119E-07
   2.56200004E-02  -3.80799719E-07
   2.58300006E-02  -3.71682290E-07
   2.60400008E-02  -3.56847266E-07
   2.62499992E-02  -3.35784648E-07
   2.64599994E-02  -3.08003507E-07
   2.66699996E-02  -2.73040115E-07
   2.68799998E-02  -2.30466696E-07
   2.70900000E-02  -1.79900269E-07
   2.73000002E-02  -1.21012178E-07
   2.75100004E-02  -5.35375797E-08
   2.77200006E-02   2.27147652E-08
   2.79300008E-02   1.07852749E-07
   2.81399991E-02   2.01891268E-07
   2.83499993E-02   3.04742741E-07
   2.85599995E-02   4.16207996E-07
   2.87699997E-02   5.35967729E-07
   2.89799999E-02   6.63574440E-07
   2.91900001E-02   7.98445399E-07
   2.94000003E-02   9.39856591E-07
   2.96100006E-02   1.08693746E-06
   2.98200008E-02   1.23866732E-06
   3.00299991E-02   1.39387248E-06
   3.02399993E-02   1.55122609E-06
   3.04499995E-02   1.70924898E-06
   3.06599997E-02   1.86631235E-06
   3.08699999E-02   2.02064234E-06
   3.10800001E-02   2.17032675E-06
   3.12899984E-02   2.31332479E-06
   3.15000005E-02   2.44747775E-06
   3.17099988E-02   2.57052193E-06
   3.19200009E-02   2.68010604E-06
   3.21299993E-02   2.77380718E-06
   3.23400013E-02   2.84915313E-06
   3.25499997E-02   2.90364324E-06
   3.27600017E-02   2.93477365E-06
   3.29700001E-02   2.94006463E-06
   3.31799984E-02   2.91708761E-06
   3.33900005E-02   2.86349655E-06
   3.35999988E-02   2.77705885E-06
   3.38100009E-02   2.65568792E-06
   3.40199992E-02   2.49747768E-06
   3.42300013E-02   2.30073510E-06
   3.44399996E-02   2.06401637E-06
   3.46500017E-02   1.78616119E-06
   3.48600000E-02   1.46632499E-06
   3.50699984E-02   1.10401402E-06
   3.52800004E-02   6.99116072E-07
   3.54899988E-02   2.51930800E-07
   3.57000008E-02  -2.36802776E-07
   3.59099992E-02  -7.65880543E-07
   3.61200012E-02  -1.33361152E-06
   3.63299996E-02  -1.93779897E-06
   3.65400016E-02  -2.57572538E-06
   3.67500000E-02  -3.24414214E-06
   3.69599983E-02  -3.93926393E-06
   3.71700004E-02  -4.65676840E-06
   3.73799987E-02  -5.39180019E-06
   3.75900008E-02  -6.13898101E-06
   3.77999991E-02  -6.89242734E-06
   3.80100012E-02  -7.64576998E-06
   3.82199995E-02  -8.39218683E-06
   3.84300016E-02  -9.12443284E-06
   3.86399999E-02  -9.83488644E-06
   3.88499983E-02  -1.05155923E-05
   3.90600003E-02  -1.11583195E-05
   3.92699987E-02  -1.17546169E-05
   3.94800007E-02  -1.22958827E-05
   3.96899991E-02  -1.27734284E-05
   3.99000011E-02  -1.31785628E-05
   4.01099995E-02  -1.35026685E-05
   4.03200015E-02  -1.37372836E-05
   4.05299999E-02  -1.38741925E-05
   4.07399982E-02  -1.39055128E-05
   4.09500003E-02  -1.38237911E-05
   4.11599986E-02  -1.36220933E-05
   4.13700007E-02  -1.32940986E-05
   4.15799990E-02  -1.28341908E-05
   4.17900011E-02  -1.22375513E-05
   4.19999994E-02  -1.15002440E-05
   4.22100015E-02  -1.06193029E-05
   4.24199998E-02  -9.59281442E-06
   4.26299982E-02  -8.41998917E-06
   4.28400002E-02  -7.10122822E-06
   4.30499986E-02  -5.63819140E-06
   4.32600006E-02  -4.03384320E-06
   4.34699990E-02  -2.29250122E-06
   4.36800011E-02  -4.19867177E-07
   4.38899994E-02   1.57694922E-06
   4.41000015E-02   3.68941824E-06
   4.43099998E-02   5.90759009E-06
   4.45200019E-02   8.22010861E-06
   4.47300002E-02   1.06142370E-05
   4.49399985E-02   1.30758945E-05
   4.51500006E-02   1.55897123E-05
   4.53599989E-02   1.81390933E-05
   4.55700010E-02   2.07062949E-05
   4.57799993E-02   2.32725197E-05
   4.59900014E-02   2.58180207E-05
   4.61999997E-02   2.83222198E-05
   4.64100018E-02   3.07638329E-05
   4.66200002E-02   3.31210103E-05
   4.68299985E-02   3.53714895E-05
   4.70400006E-02   3.74927440E-05
   4.72499989E-02   3.94621675E-05
   4.74600010E-02   4.12572408E-05
   4.76699993E-02   4.28556996E-05
   4.78800014E-02   4.42357377E-05
   4.80899997E-02   4.53761895E-05
   4.83000018E-02   4.62567004E-05
   4.85100001E-02   4.68579419E-05
   4.87199984E-02   4.71617896E-05
   4.89300005E-02   4.71514868E-05
   4.91399989E-02   4.68118560E-05
   4.93500009E-02   4.61294512E-05
   4.95599993E-02   4.50927255E-05
   4.97700013E-02   4.36921873E-05
   4.99799997E-02   4.19205389E-05
   5.01900017E-02   3.97728181E-05
   5.04000001E-02   3.72465038E-05
   5.06099984E-02   3.43416250E-05
   5.08200005E-02   3.10608484E-05
   5.10299988E-02   2.74095473E-05
   5.12400009E-02   2.33958453E-05
   5.14499992E-02   1.90306546E-05
   5.16600013E-02   1.43276948E-05
   5.18699996E-02   9.30347596E-06
   5.20800017E-02   3.97728036E-06
   5.22900000E-02  -1.62889035E-06
   5.24999984E-02  -7.49037599E-06
   5.27100004E-02  -1.35799473E-05
   5.29199988E-02  -1.98679045E-05
   5.31300008E-02  -2.63222100E-05
   5.33399992E-02  -3.29086324E-05
   5.35500012E-02  -3.95908901E-05
   5.37599996E-02  -4.63308497E-05
   5.39700016E-02  -5.30886828E-05
   5.41800000E-02  -5.98231200E-05
   5.43899983E-02  -6.64916297E-05
   5.46000004E-02  -7.30506654E-05
   5.48099987E-02  -7.94558800E-05
   5.50200008E-02  -8.56624247E-05
   5.52299991E-02  -9.16251302E-05
   5.54400012E-02  -9.72988346E-05
   5.56499995E-02  -1.02638616E-04
   5.58600016E-02  -1.07600055E-04
   5.60699999E-02  -1.12139518E-04
   5.62799983E-02  -1.16214389E-04
   5.64900003E-02  -1.19783370E-04
   5.66999987E-02  -1.22806727E-04
   5.69100007E-02  -1.25246530E-04
   5.71199991E-02  -1.27066916E-04
   5.73300011E-02  -1.28234344E-04
   5.75399995E-02  -1.28717773E-04
   5.77500015E-02  -1.28488929E-04
   5.79599999E-02  -1.27522537E-04
   5.81699982E-02  -1.25796447E-04
   5.83800003E-02  -1.23291873E-04
   5.85899986E-02  -1.19993536E-04
   5.88000007E-02  -1.15889889E-04
   5.90099990E-02  -1.10973189E-04
   5.92200011E-02  -1.05239676E-04
   5.94299994E-02  -9.86896775E-05
   5.96400015E-02  -9.13277036E-05
   5.98499998E-02  -8.31625657E-05
   6.00599982E-02  -7.42074262E-05
   6.02700002E-02  -6.44798783E-05
   6.04799986E-02  -5.40019573E-05
   6.06900007E-02  -4.28002277E-05
   6.08999990E-02  -3.09057250E-05
   6.11100011E-02  -1.83540269E-05
   6.13199994E-02  -5.18518164E-06
   6.15300015E-02   8.55628787E-06
   6.17399998E-02   2.28214558E-05
   6.19499981E-02   3.75570562E-05
   6.21600002E-02   5.27055672E-05
   6.23699985E-02   6.82052851E-05
   6.25799969E-02   8.39904751E-05
   6.27899989E-02   9.99915137E-05
   6.30000010E-02   1.16135030E-04
   6.32100031E-02   1.32344081E-04
   6.34199977E-02   1.48538355E-04
   6.36299998E-02   1.64634403E-04
   6.38400018E-02   1.80545874E-04
   6.40499964E-02   1.96183799E-04
   6.42599985E-02   2.11456849E-04
   6.44700006E-02   2.26271688E-04
   6.46800026E-02   2.40533307E-04
   6.48899972E-02   2.54145445E-04
   6.50999993E-02   2.67010822E-04
   6.53100014E-02   2.79031781E-04
   6.55200034E-02   2.90110620E-04
   6.57299981E-02   3.00150132E-04
   6.59400001E-02   3.09054012E-04
   6.61500022E-02   3.16727499E-04
   6.63599968E-02   3.23077897E-04
   6.65699989E-02   3.28015158E-04
   6.67800009E-02   3.31452495E-04
   6.69900030E-02   3.33306991E-04
   6.71999976E-02   3.33500269E-04
   6.74099997E-02   3.31959163E-04
   6.76200017E-02   3.28616356E-04
   6.78299963E-02   3.23411048E-04
   6.80399984E-02   3.16289748E-04
   6.82500005E-02   3.07206792E-04
   6.84600025E-02   2.96125159E-04
   6.86699972E-02   2.83017085E-04
   6.88799992E-02   2.67864700E-04
   6.90900013E-02   2.50660698E-04
   6.93000033E-02   2.31408907E-04
   6.95099980E-02   2.10124796E-04
   6.97200000E-02   1.86836100E-04
   6.99300021E-02   1.61583215E-04
   7.01399967E-02   1.34419693E-04
   7.03499988E-02   1.05412480E-04
   7.05600008E-02   7.46422593E-05
   7.07700029E-02   4.22036574E-05
   7.09799975E-02   8.20533387E-06
   7.11899996E-02  -2.72299658E-05
   7.14000016E-02  -6.39654972E-05
   7.16100037E-02  -1.01850666E-04
   7.18199983E-02  -1.40721342E-04
   7.20300004E-02  -1.80400195E-04
   7.22400025E-02  -2.20697242E-04
   7.24499971E-02  -2.61410460E-04
   7.26599991E-02  -3.02326487E-04
   7.28700012E-02  -3.43221531E-04
   7.30800033E-02  -3.83862265E-04
   7.32899979E-02  -4.24007041E-04
   7.34999999E-02  -4.63406992E-04
   7.37100020E-02  -5.01807313E-04
   7.39199966E-02  -5.38948865E-04
   7.41299987E-02  -5.74569567E-04
   7.43400007E-02  -6.08406030E-04
   7.45500028E-02  -6.40195329E-04
   7.47599974E-02  -6.69676694E-04
   7.49699995E-02  -6.96593313E-04
   7.51800016E-02  -7.20694428E-04
   7.53900036E-02  -7.41737196E-04
   7.55999982E-02  -7.59488554E-04
   7.58100003E-02  -7.73727195E-04
   7.60200024E-02  -7.84245611E-04
   7.62299970E-02  -7.90852122E-04
   7.64399990E-02  -7.93372747E-04
   7.66500011E-02  -7.91652885E-04
   7.68600032E-02  -7.85559299E-04
   7.70699978E-02  -7.74981745E-04
   7.72799999E-02  -7.59834598E-04
   7.74900019E-02  -7.40058371E-04
   7.76999965E-02  -7.15620758E-04
   7.79099986E-02  -6.86518208E-04
   7.81200007E-02  -6.52776624E-04
   7.83300027E-02  -6.14452292E-04
   7.85399973E-02  -5.71632525E-04
   7.87499994E-02  -5.24435949E-04
   7.89600015E-02  -4.73012769E-04
   7.91700035E-02  -4.17544739E-04
   7.93799981E-02  -3.58244666E-04
   7.95900002E-02  -2.95356062E-04
   7.98000023E-02  -2.29152254E-04
   8.00099969E-02  -1.59935385E-04
   8.02199990E-02  -8.80350854E-05
   8.04300010E-02  -1.38069072E-05
   8.06400031E-02   6.23694068E-05
   8.08499977E-02   1.40092001E-04
   8.10599998E-02   2.18939167E-04
   8.12700018E-02   2.98471772E-04
   8.14799964E-02   3.78235913E-04
   8.16899985E-02   4.57765855E-04
   8.19000006E-02   5.36586915E-04
   8.21100026E-02   6.14218588E-04
   8.23199973E-02   6.90178131E-04
   8.25299993E-02   7.63983524E-04
   8.27400014E-02   8.35157291E-04
   8.29500034E-02   9.03229695E-04
   8.31599981E-02   9.67742410E-04
   8.33700001E-02   1.02825195E-03
   8.35800022E-02   1.08433329E-03
   8.37899968E-02   1.13558304E-03
   8.39999989E-02   1.18162285E-03
   8.42100009E-02   1.22210255E-03
   8.44200030E-02   1.25670305E-03
   8.46299976E-02   1.28513959E-03
   8.48399997E-02   1.30716350E-03
   8.50500017E-02   1.32256548E-03
   8.52599964E-02   1.33117719E-03
   8.54699984E-02   1.33287278E-03
   8.56800005E-02   1.32757134E-03
   8.58900025E-02   1.31523702E-03
   8.60999972E-02   1.29588041E-03
   8.63099992E-02   1.26955891E-03
   8.65200013E-02   1.23637682E-03
   8.67300034E-02   1.19648513E-03
   8.69399980E-02   1.15008093E-03
   8.71500000E-02   1.09740614E-03
   8.73600021E-02   1.03874621E-03
   8.75699967E-02   9.74428607E-04
   8.77799988E-02   9.04820510E-04
   8.79900008E-02   8.30326346E-04
   8.82000029E-02   7.51384883E-04
   8.84099975E-02   6.68466440E-04
   8.86199996E-02   5.82069159E-04
   8.88300017E-02   4.92715801E-04
   8.90400037E-02   4.00949502E-04
   8.92499983E-02   3.07329872E-04
   8.94600004E-02   2.12428742E-04
   8.96700025E-02   1.16825780E-04
   8.98799971E-02   2.11040933E-05
   9.00899991E-02  -7.41543117E-05
   9.03000012E-02  -1.68373110E-04
   9.05100033E-02  -2.60986097E-04
   9.07199979E-02  -3.51441675E-04
   9.09299999E-02  -4.39207157E-04
   9.11400020E-02  -5.23772964E-04
   9.13499966E-02  -6.04656758E-04
   9.15599987E-02  -6.81407109E-04
   9.17700008E-02  -7.53606902E-04
   9.19800028E-02  -8.20877147E-04
   9.21899974E-02  -8.82879482E-04
   9.23999995E-02  -9.39318794E-04
   9.26100016E-02  -9.89945489E-04
   9.28200036E-02  -1.03455770E-03
   9.30299982E-02  -1.07300200E-03
   9.32400003E-02  -1.10517524E-03
   9.34500024E-02  -1.13102456E-03
   9.36599970E-02  -1.15054764E-03
   9.38699991E-02  -1.16379245E-03
   9.40800011E-02  -1.17085665E-03
   9.42900032E-02  -1.17188599E-03
   9.44999978E-02  -1.16707291E-03
   9.47099999E-02  -1.15665467E-03
   9.49200019E-02  -1.14091032E-03
   9.51299965E-02  -1.12015859E-03
   9.53399986E-02  -1.09475455E-03
   9.55500007E-02  -1.06508576E-03
   9.57600027E-02  -1.03156862E-03
   9.59699973E-02  -9.94644361E-04
   9.61799994E-02  -9.54775314E-04
   9.63900015E-02  -9.12439427E-04
   9.66000035E-02  -8.68126459E-04
   9.68099982E-02  -8.22333212E-04
   9.70200002E-02  -7.75558699E-04
   9.72300023E-02  -7.28299376E-04
   9.74399969E-02  -6.81044534E-04
   9.76499990E-02  -6.34271652E-04
   9.78600010E-02  -5.88442083E-04
   9.80700031E-02  -5.43996575E-04
   9.82799977E-02  -5.01351315E-04
   9.84899998E-02  -4.60894022E-04
   9.87000018E-02  -4.22980258E-04
   9.89099964E-02  -3.87930573E-04
   9.91199985E-02  -3.56027391E-04
   9.93300006E-02  -3.27512360E-04
   9.95400026E-02  -3.02584522E-04
   9.97499973E-02  -2.81398592E-04
   9.99599993E-02  -2.64063478E-04
  0.100170001      -2.50641810E-04
  0.100380003      -2.41149304E-04
  0.100589998      -2.35555068E-04
  0.100800000      -2.33782164E-04
  0.101010002      -2.35708489E-04
  0.101219997      -2.41168207E-04
  0.101429999      -2.49953737E-04
  0.101640001      -2.61817971E-04
  0.101850003      -2.76476698E-04
  0.102059998      -2.93611811E-04
  0.102270000      -3.12874501E-04
  0.102480002      -3.33888864E-04
  0.102689996      -3.56255594E-04
  0.102899998      -3.79556121E-04
  0.103110000      -4.03356680E-04
  0.103320003      -4.27212683E-04
  0.103529997      -4.50673106E-04
  0.103739999      -4.73284599E-04
  0.103950001      -4.94596257E-04
  0.104160003      -5.14163927E-04
  0.104369998      -5.31554280E-04
  0.104580000      -5.46348863E-04
  0.104790002      -5.58148196E-04
  0.104999997      -5.66575385E-04
  0.105209999      -5.71279670E-04
  0.105420001      -5.71939629E-04
  0.105630003      -5.68265677E-04
  0.105839998      -5.60003042E-04
  0.106050000      -5.46933792E-04
  0.106260002      -5.28878474E-04
  0.106470004      -5.05697739E-04
  0.106679998      -4.77293273E-04
  0.106890000      -4.43608325E-04
  0.107100002      -4.04627965E-04
  0.107309997      -3.60378879E-04
  0.107519999      -3.10928794E-04
  0.107730001      -2.56385480E-04
  0.107940003      -1.96895344E-04
  0.108149998      -1.32641871E-04
  0.108360000      -6.38437923E-05
  0.108570002       9.24744836E-06
  0.108779997       8.63504247E-05
  0.108989999       1.67156089E-04
  0.109200001       2.51330814E-04
  0.109410003       3.38519749E-04
  0.109619997       4.28349886E-04
  0.109830000       5.20433648E-04
  0.110040002       6.14372198E-04
  0.110250004       7.09758315E-04
  0.110459998       8.06180411E-04
  0.110670000       9.03225737E-04
  0.110880002       1.00048352E-03
  0.111089997       1.09754771E-03
  0.111299999       1.19402062E-03
  0.111510001       1.28951459E-03
  0.111720003       1.38365570E-03
  0.111929998       1.47608574E-03
  0.112140000       1.56646292E-03
  0.112350002       1.65446545E-03
  0.112559997       1.73979183E-03
  0.112769999       1.82216265E-03
  0.112980001       1.90132088E-03
  0.113190003       1.97703275E-03
  0.113399997       2.04908825E-03
  0.113609999       2.11730110E-03
  0.113820001       2.18150718E-03
  0.114030004       2.24156654E-03
  0.114239998       2.29736022E-03
  0.114450000       2.34879041E-03
  0.114660002       2.39577936E-03
  0.114869997       2.43826723E-03
  0.115079999       2.47621234E-03
  0.115290001       2.50958721E-03
  0.115500003       2.53837858E-03
  0.115709998       2.56258552E-03
  0.115920000       2.58221640E-03
  0.116130002       2.59728893E-03
  0.116339996       2.60782731E-03
  0.116549999       2.61386111E-03
  0.116760001       2.61542364E-03
  0.116970003       2.61255028E-03
  0.117179997       2.60527758E-03
  0.117389999       2.59364210E-03
  0.117600001       2.57767993E-03
  0.117810003       2.55742483E-03
  0.118019998       2.53290869E-03
  0.118230000       2.50416086E-03
  0.118440002       2.47120811E-03
  0.118649997       2.43407441E-03
  0.118859999       2.39278213E-03
  0.119070001       2.34735128E-03
  0.119280003       2.29780213E-03
  0.119489998       2.24415353E-03
  0.119700000       2.18642526E-03
  0.119910002       2.12463969E-03
  0.120119996       2.05882150E-03
  0.120329998       1.98900001E-03
  0.120540000       1.91521028E-03
  0.120750003       1.83749385E-03
  0.120959997       1.75590033E-03
  0.121169999       1.67048839E-03
  0.121380001       1.58132683E-03
  0.121590003       1.48849585E-03
  0.121799998       1.39208673E-03
  0.122010000       1.29220320E-03
  0.122220002       1.18896167E-03
  0.122429997       1.08249031E-03
  0.122639999       9.72929585E-04
  0.122850001       8.60432046E-04
  0.123060003       7.45160622E-04
  0.123269998       6.27287023E-04
  0.123480000       5.06991171E-04
  0.123690002       3.84458457E-04
  0.123899996       2.59877997E-04
  0.124109998       1.33439607E-04
  0.124320000       5.33064485E-06
  0.124530002      -1.24265731E-04
  0.124739997      -2.55175313E-04
  0.124949999      -3.87236185E-04
  0.125159994      -5.20302041E-04
  0.125369996      -6.54246658E-04
  0.125579998      -7.88967416E-04
  0.125790000      -9.24389111E-04
  0.126000002      -1.06046896E-03
  0.126210004      -1.19719910E-03
  0.126420006      -1.33460935E-03
  0.126629993      -1.47277280E-03
  0.126839995      -1.61180890E-03
  0.127049997      -1.75188249E-03
  0.127260000      -1.89320755E-03
  0.127470002      -2.03605159E-03
  0.127680004      -2.18073186E-03
  0.127890006      -2.32761889E-03
  0.128099993      -2.47713528E-03
  0.128309995      -2.62975157E-03
  0.128519997      -2.78598559E-03
  0.128729999      -2.94639939E-03
  0.128940001      -3.11159436E-03
  0.129150003      -3.28220613E-03
  0.129360005      -3.45889805E-03
  0.129570007      -3.64235253E-03
  0.129779994      -3.83326132E-03
  0.129989997      -4.03231988E-03
  0.130199999      -4.24021389E-03
  0.130410001      -4.45760554E-03
  0.130620003      -4.68512066E-03
  0.130830005      -4.92333667E-03
  0.131040007      -5.17276954E-03
  0.131249994      -5.43385232E-03
  0.131459996      -5.70692169E-03
  0.131669998      -5.99220069E-03
  0.131880000      -6.28977967E-03
  0.132090002      -6.59959856E-03
  0.132300004      -6.92142546E-03
  0.132510006      -7.25484081E-03
  0.132719994      -7.59921782E-03
  0.132929996      -7.95370061E-03
  0.133139998      -8.31718557E-03
  0.133350000      -8.68830644E-03
  0.133560002      -9.06541292E-03
  0.133770004      -9.44655016E-03
  0.133980006      -9.82944481E-03
  0.134189993      -1.02114948E-02
  0.134399995      -1.05897458E-02
  0.134609997      -1.09608816E-02
  0.134819999      -1.13212150E-02
  0.135030001      -1.16666714E-02
  0.135240003      -1.19927814E-02
  0.135450006      -1.22946799E-02
  0.135659993      -1.25671001E-02
  0.135869995      -1.28043666E-02
  0.136079997      -1.30003942E-02
  0.136289999      -1.31486962E-02
  0.136500001      -1.32423863E-02
  0.136710003      -1.32741854E-02
  0.136920005      -1.32364286E-02
  0.137130007      -1.31210797E-02
  0.137339994      -1.29197454E-02
  0.137549996      -1.26236985E-02
  0.137759998      -1.22238835E-02
  0.137970001      -1.17109455E-02
  0.138180003      -1.10752610E-02
  0.138390005      -1.03069618E-02
  0.138600007      -9.39595420E-03
  0.138809994      -8.33195541E-03
  0.139019996      -7.10453745E-03
  0.139229998      -5.70314750E-03
  0.139440000      -4.11714893E-03
  0.139650002      -2.33586947E-03
  0.139860004      -3.48624511E-04
  0.140070006       1.85522973E-03
  0.140279993       4.28626128E-03
  0.140489995       6.95491489E-03
  0.140699998       9.87147726E-03
  0.140910000       1.30460327E-02
  0.141120002       1.64884068E-02
  0.141330004       2.02081408E-02
  0.141540006       2.42144372E-02
  0.141749993       2.85161249E-02
  0.141959995       3.31216194E-02
  0.142169997       3.80388796E-02
  0.142379999       4.32753712E-02
  0.142590001       4.88380343E-02
  0.142800003       5.47332428E-02
  0.143010005       6.09667674E-02
  0.143220007       6.75437599E-02
  0.143429995       7.44687244E-02
  0.143639997       8.17454830E-02
  0.143849999       8.93771499E-02
  0.144060001       9.73661318E-02
  0.144270003      0.105714098    
  0.144480005      0.114421964    
  0.144690007      0.123489909    
  0.144899994      0.132917315    
  0.145109996      0.142702818    
  0.145319998      0.152844265    
  0.145530000      0.163338780    
  0.145740002      0.174182728    
  0.145950004      0.185371682    
  0.146160007      0.196900532    
  0.146369994      0.208763421    
  0.146579996      0.220953807    
  0.146789998      0.233464524    
  0.147000000      0.246287659    
  0.147210002      0.259414762    
  0.147420004      0.272836775    
  0.147630006      0.286544055    
  0.147839993      0.300526500    
  0.148049995      0.314773500    
  0.148259997      0.329273969    
  0.148469999      0.344016463    
  0.148680001      0.358989179    
  0.148890004      0.374179989    
  0.149100006      0.389576465    
  0.149309993      0.405165970    
  0.149519995      0.420935720    
  0.149729997      0.436872721    
  0.149939999      0.452963978    
  0.150150001      0.469196409    
  0.150360003      0.485556901    
  0.150570005      0.502032340    
  0.150780007      0.518609881    
  0.150989994      0.535276532    
  0.151199996      0.552019596    
  0.151409999      0.568826735    
  0.151620001      0.585685611    
  0.151830003      0.602584183    
  0.152040005      0.619510829    
  0.152250007      0.636454225    
  0.152459994      0.653403342    
  0.152669996      0.670347631    
  0.152879998      0.687276900    
  0.153090000      0.704181373    
  0.153300002      0.721051633    
  0.153510004      0.737878978    
  0.153720006      0.754655004    
  0.153929994      0.771371782    
  0.154139996      0.788021982    
  0.154349998      0.804598749    
  0.154560000      0.821095645    
  0.154770002      0.837506771    
  0.154980004      0.853826821    
  0.155190006      0.870050848    
  0.155399993      0.886174440    
  0.155609995      0.902193785    
  0.155819997      0.918105304    
  0.156029999      0.933906138    
  0.156240001      0.949593544    
  0.156450003      0.965165496    
  0.156660005      0.980620265    
  0.156869993      0.995956361    
  0.157079995       1.01117289    
  0.157289997       1.02626920    
  0.157499999       1.04124498    
  0.157710001       1.05610001    
  0.157920003       1.07083476    
  0.158130005       1.08544981    
  0.158340007       1.09994566    
  0.158549994       1.11432338    
  0.158759996       1.12858391    
  0.158969998       1.14272857    
  0.159180000       1.15675890    
  0.159390002       1.17067623    
  0.159600005       1.18448210    
  0.159810007       1.19817841    
  0.160019994       1.21176660    
  0.160229996       1.22524834    
  0.160439998       1.23862565    
  0.160650000       1.25190008    
  0.160860002       1.26507342    
  0.161070004       1.27814734    
  0.161280006       1.29112339    
  0.161489993       1.30400324    
  0.161699995       1.31678832    
  0.161909997       1.32948005    
  0.162120000       1.34207988    
  0.162330002       1.35458922    
  0.162540004       1.36700904    
  0.162750006       1.37934053    
  0.162959993       1.39158475    
  0.163169995       1.40374267    
  0.163379997       1.41581511    
  0.163589999       1.42780280    
  0.163800001       1.43970668    
  0.164010003       1.45152724    
  0.164220005       1.46326506    
  0.164430007       1.47492111    
  0.164639995       1.48649561    
  0.164849997       1.49798942    
  0.165059999       1.50940299    
  0.165270001       1.52073681    
  0.165480003       1.53199160    
  0.165690005       1.54316783    
  0.165900007       1.55426645    
  0.166109994       1.56528819    
  0.166319996       1.57623374    
  0.166529998       1.58710444    
  0.166740000       1.59790123    
  0.166950002       1.60862541    
  0.167160004       1.61927831    
  0.167370006       1.62986171    
  0.167579994       1.64037728    
  0.167789996       1.65082693    
  0.167999998       1.66121280    
  0.168210000       1.67153764    
  0.168420002       1.68180382    
  0.168630004       1.69201422    
  0.168840006       1.70217192    
  0.169049993       1.71228039    
  0.169259995       1.72234333    
  0.169469997       1.73236454    
  0.169679999       1.74234831    
  0.169890001       1.75229883    
  0.170100003       1.76222074    
  0.170310006       1.77211928    
  0.170519993       1.78199947    
  0.170729995       1.79186666    
  0.170939997       1.80172646    
  0.171149999       1.81158471    
  0.171360001       1.82144749    
  0.171570003       1.83132112    
  0.171780005       1.84121180    
  0.171990007       1.85112631    
  0.172199994       1.86107111    
  0.172409996       1.87105322    
  0.172619998       1.88107932    
  0.172830001       1.89115620    
  0.173040003       1.90129089    
  0.173250005       1.91149056    
  0.173460007       1.92176163    
  0.173669994       1.93211126    
  0.173879996       1.94254601    
  0.174089998       1.95307267    
  0.174300000       1.96369767    
  0.174510002       1.97442710    
  0.174720004       1.98526716    
  0.174930006       1.99622357    
  0.175139993       2.00730181    
  0.175349995       2.01850700    
  0.175559998       2.02984405    
  0.175770000       2.04131770    
  0.175980002       2.05293155    
  0.176190004       2.06468916    
  0.176400006       2.07659388    
  0.176609993       2.08864784    
  0.176819995       2.10085368    
  0.177029997       2.11321235    
  0.177239999       2.12572479    
  0.177450001       2.13839173    
  0.177660003       2.15121245    
  0.177870005       2.16418600    
  0.178080007       2.17731047    
  0.178289995       2.19058394    
  0.178499997       2.20400357    
  0.178709999       2.21756530    
  0.178920001       2.23126483    
  0.179130003       2.24509740    
  0.179340005       2.25905704    
  0.179550007       2.27313757    
  0.179759994       2.28733182    