   0.00000000       0.00000000    
   2.09999998E-04   0.00000000    
   4.19999997E-04   0.00000000    
   6.30000024E-04   0.00000000    
   8.39999993E-04   1.68021910E-18
   1.04999996E-03   1.86586320E-17
   1.26000005E-03   1.10904254E-16
   1.47000002E-03   4.70413353E-16
   1.67999999E-03   1.59878718E-15
   1.88999996E-03   4.63184467E-15
   2.09999993E-03   1.18806476E-14
   2.30999989E-03   2.76710231E-14
   2.52000010E-03   5.95734535E-14
   2.73000007E-03   1.20120683E-13
   2.94000003E-03   2.29110107E-13
   3.15000000E-03   4.16581591E-13
   3.35999997E-03   7.26545560E-13
   3.56999994E-03   1.22151388E-12
   3.77999991E-03   1.98785237E-12
   3.99000011E-03   3.14193289E-12
   4.19999985E-03   4.83700927E-12
   4.41000005E-03   7.27068622E-12
   4.61999979E-03   1.06927757E-11
   4.82999999E-03   1.54132696E-11
   5.04000019E-03   2.18100711E-11
   5.24999993E-03   3.03360566E-11
   5.46000013E-03   4.15249536E-11
   5.66999987E-03   5.59954166E-11
   5.88000007E-03   7.44527079E-11
   6.08999981E-03   9.76872055E-11
   6.30000001E-03   1.26568936E-10
   6.51000021E-03   1.62037495E-10
   6.71999995E-03   2.05086448E-10
   6.93000015E-03   2.56741295E-10
   7.13999989E-03   3.18030602E-10
   7.35000009E-03   3.89949351E-10
   7.55999982E-03   4.73414141E-10
   7.77000003E-03   5.69209624E-10
   7.98000023E-03   6.77926548E-10
   8.19000043E-03   7.99890265E-10
   8.39999970E-03   9.35081790E-10
   8.60999990E-03   1.08304987E-09
   8.82000010E-03   1.24281674E-09
   9.03000031E-03   1.41277778E-09
   9.23999958E-03   1.59059699E-09
   9.44999978E-03   1.77310155E-09
   9.65999998E-03   1.95617500E-09
   9.87000018E-03   2.13465534E-09
   1.00800004E-02   2.30223907E-09
   1.02899997E-02   2.45139553E-09
   1.04999999E-02   2.57329669E-09
   1.07100001E-02   2.65776534E-09
   1.09200003E-02   2.69324607E-09
   1.11300005E-02   2.66680678E-09
   1.13399997E-02   2.56417354E-09
   1.15499999E-02   2.36980280E-09
   1.17600001E-02   2.06699857E-09
   1.19700003E-02   1.63808034E-09
   1.21799996E-02   1.06460341E-09
   1.23899998E-02   3.27636029E-10
   1.26000000E-02  -5.91900085E-10
   1.28100002E-02  -1.71282366E-09
   1.30200004E-02  -3.05322367E-09
   1.32299997E-02  -4.62991823E-09
   1.34399999E-02  -6.45784715E-09
   1.36500001E-02  -8.54939763E-09
   1.38600003E-02  -1.09136646E-08
   1.40699996E-02  -1.35556579E-08
   1.42799998E-02  -1.64754450E-08
   1.44900000E-02  -1.96672598E-08
   1.47000002E-02  -2.31185684E-08
   1.49100004E-02  -2.68091256E-08
   1.51199996E-02  -3.07099981E-08
   1.53299998E-02  -3.47826159E-08
   1.55400001E-02  -3.89778414E-08
   1.57500003E-02  -4.32350866E-08
   1.59600005E-02  -4.74814890E-08
   1.61700007E-02  -5.16311793E-08
   1.63800009E-02  -5.55846746E-08
   1.65899992E-02  -5.92283982E-08
   1.67999994E-02  -6.24343812E-08
   1.70099996E-02  -6.50601280E-08
   1.72199998E-02  -6.69487505E-08
   1.74300000E-02  -6.79293208E-08
   1.76400002E-02  -6.78175098E-08
   1.78500004E-02  -6.64165256E-08
   1.80600006E-02  -6.35183426E-08
   1.82700008E-02  -5.89053819E-08
   1.84799992E-02  -5.23524477E-08
   1.86899994E-02  -4.36290648E-08
   1.88999996E-02  -3.25022604E-08
   1.91099998E-02  -1.87396978E-08
   1.93200000E-02  -2.11322693E-09
   1.95300002E-02   1.75972055E-08
   1.97400004E-02   4.05992111E-08
   1.99500006E-02   6.70832705E-08
   2.01600008E-02   9.72177077E-08
   2.03699991E-02   1.31143423E-07
   2.05799993E-02   1.68968185E-07
   2.07899995E-02   2.10760959E-07
   2.09999997E-02   2.56545832E-07
   2.12099999E-02   3.06296045E-07
   2.14200001E-02   3.59927753E-07
   2.16300003E-02   4.17294217E-07
   2.18400005E-02   4.78179800E-07
   2.20500007E-02   5.42294458E-07
   2.22600009E-02   6.09268341E-07
   2.24699993E-02   6.78647041E-07
   2.26799995E-02   7.49887306E-07
   2.28899997E-02   8.22353570E-07
   2.30999999E-02   8.95315054E-07
   2.33100001E-02   9.67944061E-07
   2.35200003E-02   1.03931484E-06
   2.37300005E-02   1.10840426E-06
   2.39400007E-02   1.17409331E-06
   2.41500009E-02   1.23516986E-06
   2.43599992E-02   1.29033310E-06
   2.45699994E-02   1.33819958E-06
   2.47799996E-02   1.37731024E-06
   2.49899998E-02   1.40614054E-06
   2.52000000E-02   1.42311012E-06
   2.54100002E-02   1.42659667E-06
   2.56200004E-02   1.41494945E-06
   2.58300006E-02   1.38650535E-06
   2.60400008E-02   1.33960737E-06
   2.62499992E-02   1.27262308E-06
   2.64599994E-02   1.18396656E-06
   2.66699996E-02   1.07211986E-06
   2.68799998E-02   9.35656715E-07
   2.70900000E-02   7.73267914E-07
   2.73000002E-02   5.83786345E-07
   2.75100004E-02   3.66213442E-07
   2.77200006E-02   1.19746105E-07
   2.79300008E-02  -1.56196577E-07
   2.81399991E-02  -4.61946172E-07
   2.83499993E-02  -7.97558698E-07
   2.85599995E-02  -1.16278898E-06
   2.87699997E-02  -1.55706630E-06
   2.89799999E-02  -1.97947134E-06
   2.91900001E-02  -2.42871420E-06
   2.94000003E-02  -2.90311687E-06
   2.96100006E-02  -3.40059682E-06
   2.98200008E-02  -3.91865251E-06
   3.00299991E-02  -4.45435444E-06
   3.02399993E-02  -5.00433862E-06
   3.04499995E-02  -5.56480518E-06
   3.06599997E-02  -6.13152088E-06
   3.08699999E-02  -6.69982455E-06
   3.10800001E-02  -7.26464032E-06
   3.12899984E-02  -7.82049574E-06
   3.15000005E-02  -8.36154140E-06
   3.17099988E-02  -8.88158320E-06
   3.19200009E-02  -9.37411096E-06
   3.21299993E-02  -9.83234258E-06
   3.23400013E-02  -1.02492650E-05
   3.25499997E-02  -1.06176876E-05
   3.27600017E-02  -1.09302928E-05
   3.29700001E-02  -1.11797008E-05
   3.31799984E-02  -1.13585356E-05
   3.33900005E-02  -1.14594895E-05
   3.35999988E-02  -1.14754002E-05
   3.38100009E-02  -1.13993274E-05
   3.40199992E-02  -1.12246307E-05
   3.42300013E-02  -1.09450521E-05
   3.44399996E-02  -1.05547988E-05
   3.46500017E-02  -1.00486295E-05
   3.48600000E-02  -9.42193219E-06
   3.50699984E-02  -8.67081326E-06
   3.52800004E-02  -7.79217316E-06
   3.54899988E-02  -6.78378774E-06
   3.57000008E-02  -5.64437869E-06
   3.59099992E-02  -4.37368681E-06
   3.61200012E-02  -2.97253223E-06
   3.63299996E-02  -1.44287424E-06
   3.65400016E-02   2.12140620E-07
   3.67500000E-02   1.98813746E-06
   3.69599983E-02   3.87947966E-06
   3.71700004E-02   5.87924887E-06
   3.73799987E-02   7.97923167E-06
   3.75900008E-02   1.01699197E-05
   3.77999991E-02   1.24405224E-05
   3.80100012E-02   1.47789942E-05
   3.82199995E-02   1.71720603E-05
   3.84300016E-02   1.96052806E-05
   3.86399999E-02   2.20630991E-05
   3.88499983E-02   2.45289284E-05
   3.90600003E-02   2.69852317E-05
   3.92699987E-02   2.94136225E-05
   3.94800007E-02   3.17949780E-05
   3.96899991E-02   3.41095692E-05
   3.99000011E-02   3.63371837E-05
   4.01099995E-02   3.84572631E-05
   4.03200015E-02   4.04490747E-05
   4.05299999E-02   4.22918529E-05
   4.07399982E-02   4.39649666E-05
   4.09500003E-02   4.54480978E-05
   4.11599986E-02   4.67214049E-05
   4.13700007E-02   4.77657013E-05
   4.15799990E-02   4.85626151E-05
   4.17900011E-02   4.90947969E-05
   4.19999994E-02   4.93460429E-05
   4.22100015E-02   4.93014923E-05
   4.24199998E-02   4.89477716E-05
   4.26299982E-02   4.82731339E-05
   4.28400002E-02   4.72676220E-05
   4.30499986E-02   4.59231633E-05
   4.32600006E-02   4.42337077E-05
   4.34699990E-02   4.21953046E-05
   4.36800011E-02   3.98062075E-05
   4.38899994E-02   3.70669077E-05
   4.41000015E-02   3.39802100E-05
   4.43099998E-02   3.05512367E-05
   4.45200019E-02   2.67874602E-05
   4.47300002E-02   2.26986576E-05
   4.49399985E-02   1.82969015E-05
   4.51500006E-02   1.35965029E-05
   4.53599989E-02   8.61393164E-06
   4.55700010E-02   3.36773041E-06
   4.57799993E-02  -2.12159603E-06
   4.59900014E-02  -7.83170981E-06
   4.61999997E-02  -1.37385850E-05
   4.64100018E-02  -1.98166581E-05
   4.66200002E-02  -2.60390152E-05
   4.68299985E-02  -3.23775603E-05
   4.70400006E-02  -3.88032204E-05
   4.72499989E-02  -4.52861241E-05
   4.74600010E-02  -5.17958288E-05
   4.76699993E-02  -5.83015026E-05
   4.78800014E-02  -6.47721463E-05
   4.80899997E-02  -7.11767862E-05
   4.83000018E-02  -7.74846849E-05
   4.85100001E-02  -8.36655236E-05
   4.87199984E-02  -8.96895435E-05
   4.89300005E-02  -9.55277719E-05
   4.91399989E-02  -1.01152138E-04
   4.93500009E-02  -1.06535597E-04
   4.95599993E-02  -1.11652284E-04
   4.97700013E-02  -1.16477568E-04
   4.99799997E-02  -1.20988116E-04
   5.01900017E-02  -1.25161998E-04
   5.04000001E-02  -1.28978674E-04
   5.06099984E-02  -1.32418965E-04
   5.08200005E-02  -1.35465074E-04
   5.10299988E-02  -1.38100513E-04
   5.12400009E-02  -1.40310076E-04
   5.14499992E-02  -1.42079691E-04
   5.16600013E-02  -1.43396333E-04
   5.18699996E-02  -1.44247853E-04
   5.20800017E-02  -1.44622929E-04
   5.22900000E-02  -1.44510777E-04
   5.24999984E-02  -1.43901110E-04
   5.27100004E-02  -1.42783858E-04
   5.29199988E-02  -1.41149008E-04
   5.31300008E-02  -1.38986477E-04
   5.33399992E-02  -1.36285889E-04
   5.35500012E-02  -1.33036388E-04
   5.37599996E-02  -1.29226595E-04
   5.39700016E-02  -1.24844315E-04
   5.41800000E-02  -1.19876531E-04
   5.43899983E-02  -1.14309332E-04
   5.46000004E-02  -1.08127802E-04
   5.48099987E-02  -1.01316029E-04
   5.50200008E-02  -9.38571247E-05
   5.52299991E-02  -8.57332998E-05
   5.54400012E-02  -7.69259641E-05
   5.56499995E-02  -6.74159019E-05
   5.58600016E-02  -5.71834862E-05
   5.60699999E-02  -4.62088938E-05
   5.62799983E-02  -3.44724831E-05
   5.64900003E-02  -2.19551312E-05
   5.66999987E-02  -8.63867172E-06
   5.69100007E-02   5.49364859E-06
   5.71199991E-02   2.04566331E-05
   5.73300011E-02   3.62625724E-05
   5.75399995E-02   5.29206300E-05
   5.77500015E-02   7.04361955E-05
   5.79599999E-02   8.88101931E-05
   5.81699982E-02   1.08038403E-04
   5.83800003E-02   1.28110711E-04
   5.85899986E-02   1.49010346E-04
   5.88000007E-02   1.70713189E-04
   5.90099990E-02   1.93187036E-04
   5.92200011E-02   2.16390850E-04
   5.94299994E-02   2.40274079E-04
   5.96400015E-02   2.64775968E-04
   5.98499998E-02   2.89825082E-04
   6.00599982E-02   3.15338548E-04
   6.02700002E-02   3.41221807E-04
   6.04799986E-02   3.67368048E-04
   6.06900007E-02   3.93657974E-04
   6.08999990E-02   4.19959571E-04
   6.11100011E-02   4.46127990E-04
   6.13199994E-02   4.72005719E-04
   6.15300015E-02   4.97422530E-04
   6.17399998E-02   5.22196002E-04
   6.19499981E-02   5.46131632E-04
   6.21600002E-02   5.69023949E-04
   6.23699985E-02   5.90656826E-04
   6.25799969E-02   6.10804535E-04
   6.27899989E-02   6.29232847E-04
   6.30000010E-02   6.45700144E-04
   6.32100031E-02   6.59959042E-04
   6.34199977E-02   6.71757618E-04
   6.36299998E-02   6.80841506E-04
   6.38400018E-02   6.86955289E-04
   6.40499964E-02   6.89845008E-04
   6.42599985E-02   6.89259730E-04
   6.44700006E-02   6.84954226E-04
   6.46800026E-02   6.76691008E-04
   6.48899972E-02   6.64242834E-04
   6.50999993E-02   6.47395209E-04
   6.53100014E-02   6.25949004E-04
   6.55200034E-02   5.99722727E-04
   6.57299981E-02   5.68555377E-04
   6.59400001E-02   5.32309001E-04
   6.61500022E-02   4.90871083E-04
   6.63599968E-02   4.44157020E-04
   6.65699989E-02   3.92112619E-04
   6.67800009E-02   3.34716227E-04
   6.69900030E-02   2.71981000E-04
   6.71999976E-02   2.03956748E-04
   6.74099997E-02   1.30731831E-04
   6.76200017E-02   5.24347088E-05
   6.78299963E-02  -3.07647097E-05
   6.80399984E-02  -1.18653974E-04
   6.82500005E-02  -2.10977261E-04
   6.84600025E-02  -3.07434908E-04
   6.86699972E-02  -4.07683139E-04
   6.88799992E-02  -5.11334219E-04
   6.90900013E-02  -6.17956801E-04
   6.93000033E-02  -7.27077073E-04
   6.95099980E-02  -8.38179374E-04
   6.97200000E-02  -9.50708461E-04
   6.99300021E-02  -1.06407097E-03
   7.01399967E-02  -1.17763749E-03
   7.03499988E-02  -1.29074568E-03
   7.05600008E-02  -1.40270335E-03
   7.07700029E-02  -1.51279150E-03
   7.09799975E-02  -1.62026810E-03
   7.11899996E-02  -1.72437239E-03
   7.14000016E-02  -1.82432856E-03
   7.16100037E-02  -1.91935175E-03
   7.18199983E-02  -2.00865138E-03
   7.20300004E-02  -2.09143688E-03
   7.22400025E-02  -2.16692383E-03
   7.24499971E-02  -2.23433832E-03
   7.26599991E-02  -2.29292223E-03
   7.28700012E-02  -2.34194030E-03
   7.30800033E-02  -2.38068542E-03
   7.32899979E-02  -2.40848376E-03
   7.34999999E-02  -2.42470088E-03
   7.37100020E-02  -2.42874725E-03
   7.39199966E-02  -2.42008432E-03
   7.41299987E-02  -2.39822874E-03
   7.43400007E-02  -2.36275909E-03
   7.45500028E-02  -2.31331913E-03
   7.47599974E-02  -2.24962342E-03
   7.49699995E-02  -2.17146100E-03
   7.51800016E-02  -2.07869965E-03
   7.53900036E-02  -1.97128858E-03
   7.55999982E-02  -1.84926274E-03
   7.58100003E-02  -1.71274401E-03
   7.60200024E-02  -1.56194367E-03
   7.62299970E-02  -1.39716384E-03
   7.64399990E-02  -1.21879822E-03
   7.66500011E-02  -1.02733262E-03
   7.68600032E-02  -8.23344046E-04
   7.70699978E-02  -6.07500202E-04
   7.72799999E-02  -3.80557700E-04
   7.74900019E-02  -1.43360056E-04
   7.76999965E-02   1.03165446E-04
   7.79099986E-02   3.58011050E-04
   7.81200007E-02   6.20092673E-04
   7.83300027E-02   8.88254202E-04
   7.85399973E-02   1.16127322E-03
   7.87499994E-02   1.43786636E-03
   7.89600015E-02   1.71669631E-03
   7.91700035E-02   1.99637702E-03
   7.93799981E-02   2.27548205E-03
   7.95900002E-02   2.55255261E-03
   7.98000023E-02   2.82610347E-03
   8.00099969E-02   3.09463358E-03
   8.02199990E-02   3.35663324E-03
   8.04300010E-02   3.61059234E-03
   8.06400031E-02   3.85501003E-03
   8.08499977E-02   4.08840273E-03
   8.10599998E-02   4.30931477E-03
   8.12700018E-02   4.51632449E-03
   8.14799964E-02   4.70805541E-03
   8.16899985E-02   4.88318410E-03
   8.19000006E-02   5.04044769E-03
   8.21100026E-02   5.17865317E-03
   8.23199973E-02   5.29668480E-03
   8.25299993E-02   5.39351022E-03
   8.27400014E-02   5.46819065E-03
   8.29500034E-02   5.51988231E-03
   8.31599981E-02   5.54784760E-03
   8.33700001E-02   5.55145741E-03
   8.35800022E-02   5.53019578E-03
   8.37899968E-02   5.48366550E-03
   8.39999989E-02   5.41159092E-03
   8.42100009E-02   5.31382067E-03
   8.44200030E-02   5.19032823E-03
   8.46299976E-02   5.04121603E-03
   8.48399997E-02   4.86671273E-03
   8.50500017E-02   4.66717593E-03
   8.52599964E-02   4.44308901E-03
   8.54699984E-02   4.19506012E-03
   8.56800005E-02   3.92381940E-03
   8.58900025E-02   3.63021716E-03
   8.60999972E-02   3.31521803E-03
   8.63099992E-02   2.97989650E-03
   8.65200013E-02   2.62543326E-03
   8.67300034E-02   2.25310819E-03
   8.69399980E-02   1.86429347E-03
   8.71500000E-02   1.46044779E-03
   8.73600021E-02   1.04310829E-03
   8.75699967E-02   6.13882730E-04
   8.77799988E-02   1.74441055E-04
   8.79900008E-02  -2.73493089E-04
   8.82000029E-02  -7.28150655E-04
   8.84099975E-02  -1.18772744E-03
   8.86199996E-02  -1.65039196E-03
   8.88300017E-02  -2.11429573E-03
   8.90400037E-02  -2.57758237E-03
   8.92499983E-02  -3.03839659E-03
   8.94600004E-02  -3.49489390E-03
   8.96700025E-02  -3.94524913E-03
   8.98799971E-02  -4.38766647E-03
   9.00899991E-02  -4.82038641E-03
   9.03000012E-02  -5.24169579E-03
   9.05100033E-02  -5.64993359E-03
   9.07199979E-02  -6.04350027E-03
   9.09299999E-02  -6.42086472E-03
   9.11400020E-02  -6.78056991E-03
   9.13499966E-02  -7.12123979E-03
   9.15599987E-02  -7.44158542E-03
   9.17700008E-02  -7.74040725E-03
   9.19800028E-02  -8.01660307E-03
   9.21899974E-02  -8.26916937E-03
   9.23999995E-02  -8.49720277E-03
   9.26100016E-02  -8.69990885E-03
   9.28200036E-02  -8.87659378E-03
   9.30299982E-02  -9.02667642E-03
   9.32400003E-02  -9.14967991E-03
   9.34500024E-02  -9.24523640E-03
   9.36599970E-02  -9.31308512E-03
   9.38699991E-02  -9.35306866E-03
   9.40800011E-02  -9.36513580E-03
   9.42900032E-02  -9.34933312E-03
   9.44999978E-02  -9.30580404E-03
   9.47099999E-02  -9.23478790E-03
   9.49200019E-02  -9.13661253E-03
   9.51299965E-02  -9.01169050E-03
   9.53399986E-02  -8.86051264E-03
   9.55500007E-02  -8.68364703E-03
   9.57600027E-02  -8.48172978E-03
   9.59699973E-02  -8.25545844E-03
   9.61799994E-02  -8.00558832E-03
   9.63900015E-02  -7.73292733E-03
   9.66000035E-02  -7.43832579E-03
   9.68099982E-02  -7.12267170E-03
   9.70200002E-02  -6.78688707E-03
   9.72300023E-02  -6.43191673E-03
   9.74399969E-02  -6.05872693E-03
   9.76499990E-02  -5.66829648E-03
   9.78600010E-02  -5.26161119E-03
   9.80700031E-02  -4.83965920E-03
   9.82799977E-02  -4.40342445E-03
   9.84899998E-02  -3.95388389E-03
   9.87000018E-02  -3.49200005E-03
   9.89099964E-02  -3.01871961E-03
   9.91199985E-02  -2.53496738E-03
   9.93300006E-02  -2.04164465E-03
   9.95400026E-02  -1.53962604E-03
   9.97499973E-02  -1.02975674E-03
   9.99599993E-02  -5.12850878E-04
  0.100170001       1.03090797E-05
  0.100380003       5.38973196E-04
  0.100589998       1.07242470E-03
  0.100800000       1.60997850E-03
  0.101010002       2.15098169E-03
  0.101219997       2.69481074E-03
  0.101429999       3.24086891E-03
  0.101640001       3.78858531E-03
  0.101850003       4.33741091E-03
  0.102059998       4.88681626E-03
  0.102270000       5.43628400E-03
  0.102480002       5.98530890E-03
  0.102689996       6.53339038E-03
  0.102899998       7.08002970E-03
  0.103110000       7.62472302E-03
  0.103320003       8.16695672E-03
  0.103529997       8.70620087E-03
  0.103739999       9.24190599E-03
  0.103950001       9.77349281E-03
  0.104160003       1.03003532E-02
  0.104369998       1.08218398E-02
  0.104580000       1.13372598E-02
  0.104790002       1.18458727E-02
  0.104999997       1.23468861E-02
  0.105209999       1.28394449E-02
  0.105420001       1.33226365E-02
  0.105630003       1.37954773E-02
  0.105839998       1.42569160E-02
  0.106050000       1.47058265E-02
  0.106260002       1.51410112E-02
  0.106470004       1.55611960E-02
  0.106679998       1.59650259E-02
  0.106890000       1.63510721E-02
  0.107100002       1.67178307E-02
  0.107309997       1.70637146E-02
  0.107519999       1.73870735E-02
  0.107730001       1.76861845E-02
  0.107940003       1.79592613E-02
  0.108149998       1.82044506E-02
  0.108360000       1.84198543E-02
  0.108570002       1.86035205E-02
  0.108779997       1.87534615E-02
  0.108989999       1.88676529E-02
  0.109200001       1.89440530E-02
  0.109410003       1.89806055E-02
  0.109619997       1.89752541E-02
  0.109830000       1.89259555E-02
  0.110040002       1.88306868E-02
  0.110250004       1.86874568E-02
  0.110459998       1.84943303E-02
  0.110670000       1.82494354E-02
  0.110880002       1.79509688E-02
  0.111089997       1.75972283E-02
  0.111299999       1.71866119E-02
  0.111510001       1.67176388E-02
  0.111720003       1.61889680E-02
  0.111929998       1.55994073E-02
  0.112140000       1.49479294E-02
  0.112350002       1.42336870E-02
  0.112559997       1.34560280E-02
  0.112769999       1.26145026E-02
  0.112980001       1.17088836E-02
  0.113190003       1.07391765E-02
  0.113399997       9.70562827E-03
  0.113609999       8.60874075E-03
  0.113820001       7.44927675E-03
  0.114030004       6.22827001E-03
  0.114239998       4.94703511E-03
  0.114450000       3.60716973E-03
  0.114660002       2.21055816E-03
  0.114869997       7.59378308E-04
  0.115079999      -7.43897224E-04
  0.115290001      -2.29650340E-03
  0.115500003      -3.89538240E-03
  0.115709998      -5.53718908E-03
  0.115920000      -7.21828872E-03
  0.116130002      -8.93476792E-03
  0.116339996      -1.06824441E-02
  0.116549999      -1.24568697E-02
  0.116760001      -1.42533444E-02
  0.116970003      -1.60669293E-02
  0.117179997      -1.78924575E-02
  0.117389999      -1.97245535E-02
  0.117600001      -2.15576384E-02
  0.117810003      -2.33859569E-02
  0.118019998      -2.52036005E-02
  0.118230000      -2.70045120E-02
  0.118440002      -2.87825223E-02
  0.118649997      -3.05313524E-02
  0.118859999      -3.22446525E-02
  0.119070001      -3.39160189E-02
  0.119280003      -3.55390161E-02
  0.119489998      -3.71071920E-02
  0.119700000      -3.86141129E-02
  0.119910002      -4.00533825E-02
  0.120119996      -4.14186567E-02
  0.120329998      -4.27036807E-02
  0.120540000      -4.39023040E-02
  0.120750003      -4.50084917E-02
  0.120959997      -4.60163616E-02
  0.121169999      -4.69201840E-02
  0.121380001      -4.77144308E-02
  0.121590003      -4.83937487E-02
  0.121799998      -4.89530116E-02
  0.122010000      -4.93873283E-02
  0.122220002      -4.96920310E-02
  0.122429997      -4.98627201E-02
  0.122639999      -4.98952493E-02
  0.122850001      -4.97857407E-02
  0.123060003      -4.95305844E-02
  0.123269998      -4.91264574E-02
  0.123480000      -4.85703014E-02
  0.123690002      -4.78593521E-02
  0.123899996      -4.69911098E-02
  0.124109998      -4.59633432E-02
  0.124320000      -4.47740890E-02
  0.124530002      -4.34216373E-02
  0.124739997      -4.19045240E-02
  0.124949999      -4.02215123E-02
  0.125159994      -3.83716039E-02
  0.125369996      -3.63539830E-02
  0.125579998      -3.41680422E-02
  0.125790000      -3.18133272E-02
  0.126000002      -2.92895418E-02
  0.126210004      -2.65965201E-02
  0.126420006      -2.37342007E-02
  0.126629993      -2.07026228E-02
  0.126839995      -1.75018813E-02
  0.127049997      -1.41321113E-02
  0.127260000      -1.05934767E-02
  0.127470002      -6.88613299E-03
  0.127680004      -3.01021128E-03
  0.127890006       1.03420555E-03
  0.128099993       5.24710398E-03
  0.128309995       9.62855667E-03
  0.128519997       1.41787576E-02
  0.128729999       1.88980233E-02
  0.128940001       2.37868112E-02
  0.129150003       2.88457498E-02
  0.129360005       3.40756513E-02
  0.129570007       3.94775122E-02
  0.129779994       4.50525396E-02
  0.129989997       5.08021340E-02
  0.130199999       5.67279421E-02
  0.130410001       6.28318116E-02
  0.130620003       6.91158250E-02
  0.130830005       7.55823031E-02
  0.131040007       8.22337866E-02
  0.131249994       8.90730172E-02
  0.131459996       9.61029902E-02
  0.131669998      0.103326879    
  0.131880000      0.110748067    
  0.132090002      0.118370093    
  0.132300004      0.126196712    
  0.132510006      0.134231806    
  0.132719994      0.142479360    
  0.132929996      0.150943488    
  0.133139998      0.159628406    
  0.133350000      0.168538347    
  0.133560002      0.177677602    
  0.133770004      0.187050492    
  0.133980006      0.196661264    
  0.134189993      0.206514105    
  0.134399995      0.216613173    
  0.134609997      0.226962462    
  0.134819999      0.237565786    
  0.135030001      0.248426840    
  0.135240003      0.259549081    
  0.135450006      0.270935655    
  0.135659993      0.282589436    
  0.135869995      0.294513106    
  0.136079997      0.306708813    
  0.136289999      0.319178492    
  0.136500001      0.331923544    
  0.136710003      0.344944984    
  0.136920005      0.358243316    
  0.137130007      0.371818662    
  0.137339994      0.385670543    
  0.137549996      0.399797946    
  0.137759998      0.414199382    
  0.137970001      0.428872705    
  0.138180003      0.443815231    
  0.138390005      0.459023684    
  0.138600007      0.474494129    
  0.138809994      0.490222096    
  0.139019996      0.506202459    
  0.139229998      0.522429407    
  0.139440000      0.538896680    
  0.139650002      0.555597246    
  0.139860004      0.572523594    
  0.140070006      0.589667559    
  0.140279993      0.607020319    
  0.140489995      0.624572635    
  0.140699998      0.642314672    
  0.140910000      0.660236061    
  0.141120002      0.678325951    
  0.141330004      0.696573079    
  0.141540006      0.714965522    
  0.141749993      0.733491242    
  0.141959995      0.752137601    
  0.142169997      0.770891786    
  0.142379999      0.789740443    
  0.142590001      0.808670223    
  0.142800003      0.827667475    
  0.143010005      0.846718192    
  0.143220007      0.865808487    
  0.143429995      0.884924293    
  0.143639997      0.904051304    
  0.143849999      0.923175514    
  0.144060001      0.942282856    
  0.144270003      0.961359084    
  0.144480005      0.980390608    
  0.144690007      0.999363661    
  0.144899994       1.01826465    
  0.145109996       1.03708041    
  0.145319998       1.05579817    
  0.145530000       1.07440543    
  0.145740002       1.09289002    
  0.145950004       1.11124039    
  0.146160007       1.12944531    
  0.146369994       1.14749408    
  0.146579996       1.16537654    
  0.146789998       1.18308330    
  0.147000000       1.20060551    
  0.147210002       1.21793461    
  0.147420004       1.23506331    
  0.147630006       1.25198472    
  0.147839993       1.26869249    
  0.148049995       1.28518128    
  0.148259997       1.30144644    
  0.148469999       1.31748402    
  0.148680001       1.33329093    
  0.148890004       1.34886456    
  0.149100006       1.36420345    
  0.149309993       1.37930667    
  0.149519995       1.39417410    
  0.149729997       1.40880644    
  0.149939999       1.42320502    
  0.150150001       1.43737221    
  0.150360003       1.45131075    
  0.150570005       1.46502423    
  0.150780007       1.47851706    
  0.150989994       1.49179399    
  0.151199996       1.50486052    
  0.151409999       1.51772273    
  0.151620001       1.53038752    
  0.151830003       1.54286206    
  0.152040005       1.55515385    
  0.152250007       1.56727123    
  0.152459994       1.57922268    
  0.152669996       1.59101713    
  0.152879998       1.60266376    
  0.153090000       1.61417222    
  0.153300002       1.62555218    
  0.153510004       1.63681388    
  0.153720006       1.64796734    
  0.153929994       1.65902281    
  0.154139996       1.66999054    
  0.154349998       1.68088067    
  0.154560000       1.69170368    
  0.154770002       1.70246983    
  0.154980004       1.71318889    
  0.155190006       1.72387123    
  0.155399993       1.73452628    
  0.155609995       1.74516356    
  0.155819997       1.75579238    
  0.156029999       1.76642156    
  0.156240001       1.77705979    
  0.156450003       1.78771508    
  0.156660005       1.79839528    
  0.156869993       1.80910778    
  0.157079995       1.81985962    
  0.157289997       1.83065712    
  0.157499999       1.84150624    
  0.157710001       1.85241234    
  0.157920003       1.86338043    
  0.158130005       1.87441480    
  0.158340007       1.88551939    
  0.158549994       1.89669752    
  0.158759996       1.90795195    
  0.158969998       1.91928506    
  0.159180000       1.93069839    
  0.159390002       1.94219339    
  0.159600005       1.95377052    
  0.159810007       1.96543026    
  0.160019994       1.97717214    
  0.160229996       1.98899519    
  0.160439998       2.00089812    
  0.160650000       2.01287961    
  0.160860002       2.02493739    
  0.161070004       2.03706932    
  0.161280006       2.04927254    
  0.161489993       2.06154418    
  0.161699995       2.07388043    
  0.161909997       2.08627772    
  0.162120000       2.09873223    
  0.162330002       2.11124015    
  0.162540004       2.12379646    
  0.162750006       2.13639736    
  0.162959993       2.14903831    
  0.163169995       2.16171455    
  0.163379997       2.17442131    
  0.163589999       2.18715429    
  0.163800001       2.19990873    
  0.164010003       2.21268034    
  0.164220005       2.22546387    
  0.164430007       2.23825550    
  0.164639995       2.25105071    
  0.164849997       2.26384521    
  0.165059999       2.27663541    
  0.165270001       2.28941679    
  0.165480003       2.30218625    
  0.165690005       2.31494045    
  0.165900007       2.32767606    
  0.166109994       2.34038973    
  0.166319996       2.35307908    
  0.166529998       2.36574173    
  0.166740000       2.37837529    
  0.166950002       2.39097786    
  0.167160004       2.40354776    
  0.167370006       2.41608381    
  0.167579994       2.42858458    
  0.167789996       2.44104934    
  0.167999998       2.45347786    
  0.168210000       2.46586919    
  0.168420002       2.47822356    
  0.168630004       2.49054098    
  0.168840006       2.50282168    
  0.169049993       2.51506639    
  0.169259995       2.52727556    
  0.169469997       2.53945017    
  0.169679999       2.55159140    
  0.169890001       2.56370020    
  0.170100003       2.57577777    
  0.170310006       2.58782578    
  0.170519993       2.59984517    
  0.170729995       2.61183739    
  0.170939997       2.62380433    
  0.171149999       2.63574719    
  0.171360001       2.64766717    
  0.171570003       2.65956545    
  0.171780005       2.67144394    
  0.171990007       2.68330359    
  0.172199994       2.69514513    
  0.172409996       2.70697021    
  0.172619998       2.71877909    
  0.172830001       2.73057270    
  0.173040003       2.74235129    
  0.173250005       2.75411510    
  0.173460007       2.76586437    
  0.173669994       2.77759862    
  0.173879996       2.78931761    
  0.174089998       2.80102062    
  0.174300000       2.81270671    
  0.174510002       2.82437468    
  0.174720004       2.83602262    
  0.174930006       2.84764862    
  0.175139993       2.85925102    
  0.175349995       2.87082720    
  0.175559998       2.88237429    
  0.175770000       2.89388919    
  0.175980002       2.90536880    
  0.176190004       2.91680980    
  0.176400006       2.92820787    
  0.176609993       2.93955898    
  0.176819995       2.95085859    
  0.177029997       2.96210217    
  0.177239999       2.97328496    
  0.177450001       2.98440194    
  0.177660003       2.99544740    
  0.177870005       3.00641632    
  0.178080007       3.01730299    
  0.178289995       3.02810144    
  0.178499997       3.03880596    
  0.178709999       3.04941082    
  0.178920001       3.05990958    
  0.179130003       3.07029629    
  0.179340005       3.08056474    
  0.179550007       3.09070945    
  0.179759994       3.10072398    