   0.00000000       0.00000000    
   2.09999998E-04   0.00000000    
   4.19999997E-04   0.00000000    
   6.30000024E-04   0.00000000    
   8.39999993E-04   5.60508488E-21
   1.04999996E-03   5.70868748E-20
   1.26000005E-03   3.14075774E-19
   1.47000002E-03   1.24245268E-18
   1.67999999E-03   3.96441115E-18
   1.88999996E-03   1.08455670E-17
   2.09999993E-03   2.64041114E-17
   2.30999989E-03   5.86395152E-17
   2.52000010E-03   1.20875201E-16
   2.73000007E-03   2.34221074E-16
   2.94000003E-03   4.30743226E-16
   3.15000000E-03   7.57420250E-16
   3.35999997E-03   1.28093108E-15
   3.56999994E-03   2.09329899E-15
   3.77999991E-03   3.31834136E-15
   3.99000011E-03   5.11889666E-15
   4.19999985E-03   7.70480058E-15
   4.41000005E-03   1.13410571E-14
   4.61999979E-03   1.63563197E-14
   4.82999999E-03   2.31514958E-14
   5.04000019E-03   3.22071742E-14
   5.24999993E-03   4.40901994E-14
   5.46000013E-03   5.94589550E-14
   5.66999987E-03   7.90654502E-14
   5.88000007E-03   1.03755295E-13
   6.08999981E-03   1.34463228E-13
   6.30000001E-03   1.72201961E-13
   6.51000021E-03   2.18049618E-13
   6.71999995E-03   2.73126167E-13
   6.93000015E-03   3.38562620E-13
   7.13999989E-03   4.15470338E-13
   7.35000009E-03   5.04881185E-13
   7.55999982E-03   6.07693962E-13
   7.77000003E-03   7.24613620E-13
   7.98000023E-03   8.56055027E-13
   8.19000043E-03   1.00205521E-12
   8.39999970E-03   1.16216726E-12
   8.60999990E-03   1.33534525E-12
   8.82000010E-03   1.51980956E-12
   9.03000031E-03   1.71291995E-12
   9.23999958E-03   1.91100564E-12
   9.44999978E-03   2.10920387E-12
   9.65999998E-03   2.30131387E-12
   9.87000018E-03   2.47964388E-12
   1.00800004E-02   2.63481121E-12
   1.02899997E-02   2.75555815E-12
   1.04999999E-02   2.82866439E-12
   1.07100001E-02   2.83877045E-12
   1.09200003E-02   2.76827281E-12
   1.11300005E-02   2.59717811E-12
   1.13399997E-02   2.30311842E-12
   1.15499999E-02   1.86131102E-12
   1.17600001E-02   1.24445604E-12
   1.19700003E-02   4.22929839E-13
   1.21799996E-02  -6.35006208E-13
   1.23899998E-02  -1.96321626E-12
   1.26000000E-02  -3.59727244E-12
   1.28100002E-02  -5.57405077E-12
   1.30200004E-02  -7.93137084E-12
   1.32299997E-02  -1.07073439E-11
   1.34399999E-02  -1.39398458E-11
   1.36500001E-02  -1.76657231E-11
   1.38600003E-02  -2.19196432E-11
   1.40699996E-02  -2.67336049E-11
   1.42799998E-02  -3.21355859E-11
   1.44900000E-02  -3.81479362E-11
   1.47000002E-02  -4.47866154E-11
   1.49100004E-02  -5.20596413E-11
   1.51199996E-02  -5.99657823E-11
   1.53299998E-02  -6.84926629E-11
   1.55400001E-02  -7.76149561E-11
   1.57500003E-02  -8.72931033E-11
   1.59600005E-02  -9.74716141E-11
   1.61700007E-02  -1.08077457E-10
   1.63800009E-02  -1.19018392E-10
   1.65899992E-02  -1.30181185E-10
   1.67999994E-02  -1.41430062E-10
   1.70099996E-02  -1.52605581E-10
   1.72199998E-02  -1.63523819E-10
   1.74300000E-02  -1.73975320E-10
   1.76400002E-02  -1.83723953E-10
   1.78500004E-02  -1.92507399E-10
   1.80600006E-02  -2.00036793E-10
   1.82700008E-02  -2.05996914E-10
   1.84799992E-02  -2.10047563E-10
   1.86899994E-02  -2.11824794E-10
   1.88999996E-02  -2.10943346E-10
   1.91099998E-02  -2.06998793E-10
   1.93200000E-02  -1.99570568E-10
   1.95300002E-02  -1.88226199E-10
   1.97400004E-02  -1.72525480E-10
   1.99500006E-02  -1.52026031E-10
   2.01600008E-02  -1.26289257E-10
   2.03699991E-02  -9.48863071E-11
   2.05799993E-02  -5.74057919E-11
   2.07899995E-02  -1.34620726E-11
   2.09999997E-02   3.72964437E-11
   2.12099999E-02   9.51786497E-11
   2.14200001E-02   1.60440466E-10
   2.16300003E-02   2.33274594E-10
   2.18400005E-02   3.13800708E-10
   2.20500007E-02   4.02054057E-10
   2.22600009E-02   4.97975605E-10
   2.24699993E-02   6.01399763E-10
   2.26799995E-02   7.12043702E-10
   2.28899997E-02   8.29499525E-10
   2.30999999E-02   9.53222168E-10
   2.33100001E-02   1.08251996E-09
   2.35200003E-02   1.21654808E-09
   2.37300005E-02   1.35429867E-09
   2.39400007E-02   1.49459578E-09
   2.41500009E-02   1.63609337E-09
   2.43599992E-02   1.77726855E-09
   2.45699994E-02   1.91642235E-09
   2.47799996E-02   2.05168282E-09
   2.49899998E-02   2.18100493E-09
   2.52000000E-02   2.30217845E-09
   2.54100002E-02   2.41283438E-09
   2.56200004E-02   2.51046028E-09
   2.58300006E-02   2.59241073E-09
   2.60400008E-02   2.65592548E-09
   2.62499992E-02   2.69815348E-09
   2.64599994E-02   2.71617218E-09
   2.66699996E-02   2.70701483E-09
   2.68799998E-02   2.66770339E-09
   2.70900000E-02   2.59527932E-09
   2.73000002E-02   2.48683607E-09
   2.75100004E-02   2.33956610E-09
   2.77200006E-02   2.15079732E-09
   2.79300008E-02   1.91803728E-09
   2.81399991E-02   1.63901881E-09
   2.83499993E-02   1.31174305E-09
   2.85599995E-02   9.34536004E-10
   2.87699997E-02   5.06098663E-10
   2.89799999E-02   2.55460236E-11
   2.91900001E-02  -5.07535014E-10
   2.94000003E-02  -1.09303899E-09
   2.96100006E-02  -1.73029491E-09
   2.98200008E-02  -2.41801446E-09
   3.00299991E-02  -3.15426352E-09
   3.02399993E-02  -3.93641608E-09
   3.04499995E-02  -4.76111550E-09
   3.06599997E-02  -5.62425528E-09
   3.08699999E-02  -6.52094556E-09
   3.10800001E-02  -7.44549977E-09
   3.12899984E-02  -8.39142711E-09
   3.15000005E-02  -9.35142541E-09
   3.17099988E-02  -1.03173905E-08
   3.19200009E-02  -1.12804335E-08
   3.21299993E-02  -1.22309025E-08
   3.23400013E-02  -1.31584201E-08
   3.25499997E-02  -1.40519258E-08
   3.27600017E-02  -1.48997374E-08
   3.29700001E-02  -1.56896078E-08
   3.31799984E-02  -1.64088068E-08
   3.33900005E-02  -1.70442132E-08
   3.35999988E-02  -1.75824173E-08
   3.38100009E-02  -1.80098301E-08
   3.40199992E-02  -1.83127913E-08
   3.42300013E-02  -1.84777154E-08
   3.44399996E-02  -1.84912263E-08
   3.46500017E-02  -1.83402999E-08
   3.48600000E-02  -1.80124005E-08
   3.50699984E-02  -1.74956973E-08
   3.52800004E-02  -1.67791576E-08
   3.54899988E-02  -1.58527520E-08
   3.57000008E-02  -1.47076422E-08
   3.59099992E-02  -1.33363143E-08
   3.61200012E-02  -1.17327721E-08
   3.63299996E-02  -9.89267690E-09
   3.65400016E-02  -7.81352760E-09
   3.67500000E-02  -5.49482682E-09
   3.69599983E-02  -2.93823255E-09
   3.71700004E-02  -1.47611826E-10
   3.73799987E-02   2.87076385E-09
   3.75900008E-02   6.10813844E-09
   3.77999991E-02   9.55318757E-09
   3.80100012E-02   1.31918734E-08
   3.82199995E-02   1.70075189E-08
   3.84300016E-02   2.09807069E-08
   3.86399999E-02   2.50892995E-08
   3.88499983E-02   2.93084597E-08
   3.90600003E-02   3.36107284E-08
   3.92699987E-02   3.79660463E-08
   3.94800007E-02   4.23418420E-08
   3.96899991E-02   4.67033097E-08
   3.99000011E-02   5.10134193E-08
   4.01099995E-02   5.52331549E-08
   4.03200015E-02   5.93217599E-08
   4.05299999E-02   6.32370032E-08
   4.07399982E-02   6.69354066E-08
   4.09500003E-02   7.03725718E-08
   4.11599986E-02   7.35035570E-08
   4.13700007E-02   7.62832428E-08
   4.15799990E-02   7.86665950E-08
   4.17900011E-02   8.06091194E-08
   4.19999994E-02   8.20673023E-08
   4.22100015E-02   8.29990228E-08
   4.24199998E-02   8.33639788E-08
   4.26299982E-02   8.31241422E-08
   4.28400002E-02   8.22441635E-08
   4.30499986E-02   8.06918408E-08
   4.32600006E-02   7.84385108E-08
   4.34699990E-02   7.54595604E-08
   4.36800011E-02   7.17347959E-08
   4.38899994E-02   6.72488198E-08
   4.41000015E-02   6.19914076E-08
   4.43099998E-02   5.59578517E-08
   4.45200019E-02   4.91492962E-08
   4.47300002E-02   4.15729993E-08
   4.49399985E-02   3.32425287E-08
   4.51500006E-02   2.41780249E-08
   4.53599989E-02   1.44062851E-08
   4.55700010E-02   3.96083077E-09
   4.57799993E-02  -7.11798043E-09
   4.59900014E-02  -1.87829858E-08
   4.61999997E-02  -3.09803028E-08
   4.64100018E-02  -4.36494716E-08
   4.66200002E-02  -5.67236746E-08
   4.68299985E-02  -7.01299072E-08
   4.70400006E-02  -8.37893523E-08
   4.72499989E-02  -9.76178498E-08
   4.74600010E-02  -1.11526177E-07
   4.76699993E-02  -1.25420584E-07
   4.78800014E-02  -1.39203408E-07
   4.80899997E-02  -1.52773723E-07
   4.83000018E-02  -1.66027718E-07
   4.85100001E-02  -1.78859594E-07
   4.87199984E-02  -1.91162627E-07
   4.89300005E-02  -2.02829341E-07
   4.91399989E-02  -2.13752585E-07
   4.93500009E-02  -2.23826603E-07
   4.95599993E-02  -2.32947613E-07
   4.97700013E-02  -2.41014533E-07
   4.99799997E-02  -2.47930046E-07
   5.01900017E-02  -2.53601456E-07
   5.04000001E-02  -2.57941394E-07
   5.06099984E-02  -2.60868916E-07
   5.08200005E-02  -2.62309953E-07
   5.10299988E-02  -2.62198370E-07
   5.12400009E-02  -2.60476611E-07
   5.14499992E-02  -2.57096190E-07
   5.16600013E-02  -2.52018566E-07
   5.18699996E-02  -2.45215375E-07
   5.20800017E-02  -2.36669180E-07
   5.22900000E-02  -2.26373785E-07
   5.24999984E-02  -2.14334619E-07
   5.27100004E-02  -2.00568849E-07
   5.29199988E-02  -1.85105449E-07
   5.31300008E-02  -1.67985618E-07
   5.33399992E-02  -1.49262391E-07
   5.35500012E-02  -1.29000398E-07
   5.37599996E-02  -1.07276080E-07
   5.39700016E-02  -8.41774366E-08
   5.41800000E-02  -5.98028649E-08
   5.43899983E-02  -3.42609994E-08
   5.46000004E-02  -7.67010633E-09
   5.48099987E-02   1.98426058E-08
   5.50200008E-02   4.81415086E-08
   5.52299991E-02   7.70838966E-08
   5.54400012E-02   1.06520815E-07
   5.56499995E-02   1.36297629E-07
   5.58600016E-02   1.66255475E-07
   5.60699999E-02   1.96232193E-07
   5.62799983E-02   2.26063605E-07
   5.64900003E-02   2.55584752E-07
   5.66999987E-02   2.84630545E-07
   5.69100007E-02   3.13036963E-07
   5.71199991E-02   3.40642885E-07
   5.73300011E-02   3.67290937E-07
   5.75399995E-02   3.92828241E-07
   5.77500015E-02   4.17107714E-07
   5.79599999E-02   4.39989037E-07
   5.81699982E-02   4.61339795E-07
   5.83800003E-02   4.81035954E-07
   5.85899986E-02   4.98962891E-07
   5.88000007E-02   5.15016325E-07
   5.90099990E-02   5.29102749E-07
   5.92200011E-02   5.41139627E-07
   5.94299994E-02   5.51056132E-07
   5.96400015E-02   5.58793374E-07
   5.98499998E-02   5.64304855E-07
   6.00599982E-02   5.67555844E-07
   6.02700002E-02   5.68523717E-07
   6.04799986E-02   5.67198072E-07
   6.06900007E-02   5.63579647E-07
   6.08999990E-02   5.57680721E-07
   6.11100011E-02   5.49524714E-07
   6.13199994E-02   5.39144764E-07
   6.15300015E-02   5.26582937E-07
   6.17399998E-02   5.11890562E-07
   6.19499981E-02   4.95126869E-07
   6.21600002E-02   4.76357201E-07
   6.23699985E-02   4.55653492E-07
   6.25799969E-02   4.33092794E-07
   6.27899989E-02   4.08756193E-07
   6.30000010E-02   3.82727791E-07
   6.32100031E-02   3.55092254E-07
   6.34199977E-02   3.25936099E-07
   6.36299998E-02   2.95347832E-07
   6.38400018E-02   2.63414819E-07
   6.40499964E-02   2.30220849E-07
   6.42599985E-02   1.95846582E-07
   6.44700006E-02   1.60371144E-07
   6.46800026E-02   1.23872198E-07
   6.48899972E-02   8.64212595E-08
   6.50999993E-02   4.80844840E-08
   6.53100014E-02   8.92590446E-09
   6.55200034E-02  -3.09952988E-08
   6.57299981E-02  -7.16241502E-08
   6.59400001E-02  -1.12909156E-07
   6.61500022E-02  -1.54801597E-07
   6.63599968E-02  -1.97256469E-07
   6.65699989E-02  -2.40231003E-07
   6.67800009E-02  -2.83683505E-07
   6.69900030E-02  -3.27573872E-07
   6.71999976E-02  -3.71859585E-07
   6.74099997E-02  -4.16495226E-07
   6.76200017E-02  -4.61433785E-07
   6.78299963E-02  -5.06623280E-07
   6.80399984E-02  -5.52005076E-07
   6.82500005E-02  -5.97512610E-07
   6.84600025E-02  -6.43071758E-07
   6.86699972E-02  -6.88597936E-07
   6.88799992E-02  -7.33994455E-07
   6.90900013E-02  -7.79153709E-07
   6.93000033E-02  -8.23953030E-07
   6.95099980E-02  -8.68254631E-07
   6.97200000E-02  -9.11905090E-07
   6.99300021E-02  -9.54733878E-07
   7.01399967E-02  -9.96554945E-07
   7.03499988E-02  -1.03716627E-06
   7.05600008E-02  -1.07634867E-06
   7.07700029E-02  -1.11386532E-06
   7.09799975E-02  -1.14946567E-06
   7.11899996E-02  -1.18288324E-06
   7.14000016E-02  -1.21383823E-06
   7.16100037E-02  -1.24204121E-06
   7.18199983E-02  -1.26719237E-06
   7.20300004E-02  -1.28898432E-06
   7.22400025E-02  -1.30710487E-06
   7.24499971E-02  -1.32124035E-06
   7.26599991E-02  -1.33107983E-06
   7.28700012E-02  -1.33631750E-06
   7.30800033E-02  -1.33665799E-06
   7.32899979E-02  -1.33181879E-06
   7.34999999E-02  -1.32153457E-06
   7.37100020E-02  -1.30556396E-06
   7.39199966E-02  -1.28369129E-06
   7.41299987E-02  -1.25573320E-06
   7.43400007E-02  -1.22154256E-06
   7.45500028E-02  -1.18101252E-06
   7.47599974E-02  -1.13408271E-06
   7.49699995E-02  -1.08074130E-06
   7.51800016E-02  -1.02103036E-06
   7.53900036E-02  -9.55051860E-07
   7.55999982E-02  -8.82966503E-07
   7.58100003E-02  -8.04995523E-07
   7.60200024E-02  -7.21432400E-07
   7.62299970E-02  -6.32635306E-07
   7.64399990E-02  -5.39028179E-07
   7.66500011E-02  -4.41108455E-07
   7.68600032E-02  -3.39438657E-07
   7.70699978E-02  -2.34649946E-07
   7.72799999E-02  -1.27441510E-07
   7.74900019E-02  -1.85744806E-08
   7.76999965E-02   9.11352629E-08
   7.79099986E-02   2.00820480E-07
   7.81200007E-02   3.09561813E-07
   7.83300027E-02   4.16403964E-07
   7.85399973E-02   5.20361539E-07
   7.87499994E-02   6.20416245E-07
   7.89600015E-02   7.15542114E-07
   7.91700035E-02   8.04715228E-07
   7.93799981E-02   8.86914847E-07
   7.95900002E-02   9.61141041E-07
   7.98000023E-02   1.02643116E-06
   8.00099969E-02   1.08186930E-06
   8.02199990E-02   1.12660609E-06
   8.04300010E-02   1.15986199E-06
   8.06400031E-02   1.18094079E-06
   8.08499977E-02   1.18926425E-06
   8.10599998E-02   1.18437447E-06
   8.12700018E-02   1.16593753E-06
   8.14799964E-02   1.13377394E-06
   8.16899985E-02   1.08786060E-06
   8.19000006E-02   1.02835065E-06
   8.21100026E-02   9.55582664E-07
   8.23199973E-02   8.70085103E-07
   8.25299993E-02   7.72593864E-07
   8.27400014E-02   6.64056870E-07
   8.29500034E-02   5.45635658E-07
   8.31599981E-02   4.18706861E-07
   8.33700001E-02   2.84878837E-07
   8.35800022E-02   1.45979314E-07
   8.37899968E-02   4.04867251E-09
   8.39999989E-02  -1.38652283E-07
   8.42100009E-02  -2.79655467E-07
   8.44200030E-02  -4.16304260E-07
   8.46299976E-02  -5.45756109E-07
   8.48399997E-02  -6.65007406E-07
   8.50500017E-02  -7.70904705E-07
   8.52599964E-02  -8.60163709E-07
   8.54699984E-02  -9.29408486E-07
   8.56800005E-02  -9.75189664E-07
   8.58900025E-02  -9.94010293E-07
   8.60999972E-02  -9.82360916E-07
   8.63099992E-02  -9.36753622E-07
   8.65200013E-02  -8.53757399E-07
   8.67300034E-02  -7.30037982E-07
   8.69399980E-02  -5.62396792E-07
   8.71500000E-02  -3.47815245E-07
   8.73600021E-02  -8.34981648E-08
   8.75699967E-02   2.33087306E-07
   8.77799988E-02   6.04167383E-07
   8.79900008E-02   1.03162040E-06
   8.82000029E-02   1.51692939E-06
   8.84099975E-02   2.06113600E-06
   8.86199996E-02   2.66480993E-06
   8.88300017E-02   3.32800278E-06
   8.90400037E-02   4.05020774E-06
   8.92499983E-02   4.83032727E-06
   8.94600004E-02   5.66665494E-06
   8.96700025E-02   6.55682879E-06
   8.98799971E-02   7.49780793E-06
   9.00899991E-02   8.48586842E-06
   9.03000012E-02   9.51657694E-06
   9.05100033E-02   1.05847776E-05
   9.07199979E-02   1.16845958E-05
   9.09299999E-02   1.28094307E-05
   9.11400020E-02   1.39519670E-05
   9.13499966E-02   1.51041959E-05
   9.15599987E-02   1.62574379E-05
   9.17700008E-02   1.74023589E-05
   9.19800028E-02   1.85289919E-05
   9.21899974E-02   1.96267811E-05
   9.23999995E-02   2.06846726E-05
   9.26100016E-02   2.16911430E-05
   9.28200036E-02   2.26342290E-05
   9.30299982E-02   2.35016196E-05
   9.32400003E-02   2.42807455E-05
   9.34500024E-02   2.49588720E-05
   9.36599970E-02   2.55231407E-05
   9.38699991E-02   2.59606404E-05
   9.40800011E-02   2.62585836E-05
   9.42900032E-02   2.64043665E-05
   9.44999978E-02   2.63856364E-05
   9.47099999E-02   2.61904734E-05
   9.49200019E-02   2.58074342E-05
   9.51299965E-02   2.52256723E-05
   9.53399986E-02   2.44350886E-05
   9.55500007E-02   2.34263807E-05
   9.57600027E-02   2.21911778E-05
   9.59699973E-02   2.07221656E-05
   9.61799994E-02   1.90131886E-05
   9.63900015E-02   1.70593212E-05
   9.66000035E-02   1.48569861E-05
   9.68099982E-02   1.24040416E-05
   9.70200002E-02   9.69983375E-06
   9.72300023E-02   6.74529019E-06
   9.74399969E-02   3.54300118E-06
   9.76499990E-02   9.72786367E-08
   9.78600010E-02  -3.58581838E-06
   9.80700031E-02  -7.49842184E-06
   9.82799977E-02  -1.16308565E-05
   9.84899998E-02  -1.59716110E-05
   9.87000018E-02  -2.05073356E-05
   9.89099964E-02  -2.52228365E-05
   9.91199985E-02  -3.01011332E-05
   9.93300006E-02  -3.51234958E-05
   9.95400026E-02  -4.02694386E-05
   9.97499973E-02  -4.55168265E-05
   9.99599993E-02  -5.08419616E-05
  0.100170001      -5.62196437E-05
  0.100380003      -6.16232937E-05
  0.100589998      -6.70250301E-05
  0.100800000      -7.23958146E-05
  0.101010002      -7.77056048E-05
  0.101219997      -8.29234850E-05
  0.101429999      -8.80178486E-05
  0.101640001      -9.29564922E-05
  0.101850003      -9.77068921E-05
  0.102059998      -1.02236285E-04
  0.102270000      -1.06511878E-04
  0.102480002      -1.10501111E-04
  0.102689996      -1.14171744E-04
  0.102899998      -1.17492098E-04
  0.103110000      -1.20431258E-04
  0.103320003      -1.22959245E-04
  0.103529997      -1.25047241E-04
  0.103739999      -1.26667699E-04
  0.103950001      -1.27794628E-04
  0.104160003      -1.28403699E-04
  0.104369998      -1.28472369E-04
  0.104580000      -1.27980180E-04
  0.104790002      -1.26908781E-04
  0.104999997      -1.25242150E-04
  0.105209999      -1.22966580E-04
  0.105420001      -1.20070930E-04
  0.105630003      -1.16546697E-04
  0.105839998      -1.12388036E-04
  0.106050000      -1.07591892E-04
  0.106260002      -1.02158003E-04
  0.106470004      -9.60889665E-05
  0.106679998      -8.93902325E-05
  0.106890000      -8.20700661E-05
  0.107100002      -7.41396216E-05
  0.107309997      -6.56128759E-05
  0.107519999      -5.65065457E-05
  0.107730001      -4.68400031E-05
  0.107940003      -3.66352651E-05
  0.108149998      -2.59168573E-05
  0.108360000      -1.47116534E-05
  0.108570002      -3.04885862E-06
  0.108779997       9.04018725E-06
  0.108989999       2.15220916E-05
  0.109200001       3.43616230E-05
  0.109410003       4.75219676E-05
  0.109619997       6.09647286E-05
  0.109830000       7.46501828E-05
  0.110040002       8.85373811E-05
  0.110250004       1.02584352E-04
  0.110459998       1.16748510E-04
  0.110670000       1.30986475E-04
  0.110880002       1.45254380E-04
  0.111089997       1.59508127E-04
  0.111299999       1.73703549E-04
  0.111510001       1.87796439E-04
  0.111720003       2.01742747E-04
  0.111929998       2.15498760E-04
  0.112140000       2.29021272E-04
  0.112350002       2.42267561E-04
  0.112559997       2.55195628E-04
  0.112769999       2.67764262E-04
  0.112980001       2.79933040E-04
  0.113190003       2.91662494E-04
  0.113399997       3.02914152E-04
  0.113609999       3.13650380E-04
  0.113820001       3.23834713E-04
  0.114030004       3.33431672E-04
  0.114239998       3.42406798E-04
  0.114450000       3.50726681E-04
  0.114660002       3.58358811E-04
  0.114869997       3.65271728E-04
  0.115079999       3.71434784E-04
  0.115290001       3.76818178E-04
  0.115500003       3.81392892E-04
  0.115709998       3.85130581E-04
  0.115920000       3.88003566E-04
  0.116130002       3.89984663E-04
  0.116339996       3.91047244E-04
  0.116549999       3.91165056E-04
  0.116760001       3.90312111E-04
  0.116970003       3.88462766E-04
  0.117179997       3.85591498E-04
  0.117389999       3.81672959E-04
  0.117600001       3.76681885E-04
  0.117810003       3.70593043E-04
  0.118019998       3.63381288E-04
  0.118230000       3.55021446E-04
  0.118440002       3.45488457E-04
  0.118649997       3.34757351E-04
  0.118859999       3.22803215E-04
  0.119070001       3.09601397E-04
  0.119280003       2.95127538E-04
  0.119489998       2.79357511E-04
  0.119700000       2.62267829E-04
  0.119910002       2.43835631E-04
  0.120119996       2.24038900E-04
  0.120329998       2.02856536E-04
  0.120540000       1.80268675E-04
  0.120750003       1.56256923E-04
  0.120959997       1.30804532E-04
  0.121169999       1.03896578E-04
  0.121380001       7.55204746E-05
  0.121590003       4.56660746E-05
  0.121799998       1.43259258E-05
  0.122010000      -1.85042627E-05
  0.122220002      -5.28254241E-05
  0.122429997      -8.86348134E-05
  0.122639999      -1.25925668E-04
  0.122850001      -1.64686935E-04
  0.123060003      -2.04902884E-04
  0.123269998      -2.46552896E-04
  0.123480000      -2.89611286E-04
  0.123690002      -3.34046752E-04
  0.123899996      -3.79822159E-04
  0.124109998      -4.26894549E-04
  0.124320000      -4.75214591E-04
  0.124530002      -5.24726638E-04
  0.124739997      -5.75368525E-04
  0.124949999      -6.27071247E-04
  0.125159994      -6.79758843E-04
  0.125369996      -7.33348541E-04
  0.125579998      -7.87750701E-04
  0.125790000      -8.42868583E-04
  0.126000002      -8.98598286E-04
  0.126210004      -9.54829506E-04
  0.126420006      -1.01144484E-03
  0.126629993      -1.06832024E-03
  0.126839995      -1.12532545E-03
  0.127049997      -1.18232355E-03
  0.127260000      -1.23917207E-03
  0.127470002      -1.29572302E-03
  0.127680004      -1.35182252E-03
  0.127890006      -1.40731235E-03
  0.128099993      -1.46202941E-03
  0.128309995      -1.51580665E-03
  0.128519997      -1.56847329E-03
  0.128729999      -1.61985552E-03
  0.128940001      -1.66977767E-03
  0.129150003      -1.71806128E-03
  0.129360005      -1.76452671E-03
  0.129570007      -1.80899398E-03
  0.129779994      -1.85128255E-03
  0.129989997      -1.89121242E-03
  0.130199999      -1.92860479E-03
  0.130410001      -1.96328247E-03
  0.130620003      -1.99507084E-03
  0.130830005      -2.02379818E-03
  0.131040007      -2.04929663E-03
  0.131249994      -2.07140204E-03
  0.131459996      -2.08995608E-03
  0.131669998      -2.10480532E-03
  0.131880000      -2.11580261E-03
  0.132090002      -2.12280708E-03
  0.132300004      -2.12568580E-03
  0.132510006      -2.12431257E-03
  0.132719994      -2.11857003E-03
  0.132929996      -2.10834900E-03
  0.133139998      -2.09355005E-03
  0.133350000      -2.07408168E-03
  0.133560002      -2.04986334E-03
  0.133770004      -2.02082400E-03
  0.133980006      -1.98690314E-03
  0.134189993      -1.94805034E-03
  0.134399995      -1.90422591E-03
  0.134609997      -1.85540097E-03
  0.134819999      -1.80155761E-03
  0.135030001      -1.74268906E-03
  0.135240003      -1.67879916E-03
  0.135450006      -1.60990271E-03
  0.135659993      -1.53602567E-03
  0.135869995      -1.45720481E-03
  0.136079997      -1.37348752E-03
  0.136289999      -1.28493190E-03
  0.136500001      -1.19160663E-03
  0.136710003      -1.09358982E-03
  0.136920005      -9.90970875E-04
  0.137130007      -8.83847883E-04
  0.137339994      -7.72328465E-04
  0.137549996      -6.56530203E-04
  0.137759998      -5.36579464E-04
  0.137970001      -4.12611087E-04
  0.138180003      -2.84768263E-04
  0.138390005      -1.53202054E-04
  0.138600007      -1.80715779E-05
  0.138809994       1.20456651E-04
  0.139019996       2.62209069E-04
  0.139229998       4.07005427E-04
  0.139440000       5.54658996E-04
  0.139650002       7.04976905E-04
  0.139860004       8.57760315E-04
  0.140070006       1.01280515E-03
  0.140279993       1.16990216E-03
  0.140489995       1.32883701E-03
  0.140699998       1.48939074E-03
  0.140910000       1.65134051E-03
  0.141120002       1.81445910E-03
  0.141330004       1.97851565E-03
  0.141540006       2.14327569E-03
  0.141749993       2.30850209E-03
  0.141959995       2.47395365E-03
  0.142169997       2.63938727E-03
  0.142379999       2.80455733E-03
  0.142590001       2.96921586E-03
  0.142800003       3.13311280E-03
  0.143010005       3.29599669E-03
  0.143220007       3.45761492E-03
  0.143429995       3.61771323E-03
  0.143639997       3.77603644E-03
  0.143849999       3.93232889E-03
  0.144060001       4.08633472E-03
  0.144270003       4.23779851E-03
  0.144480005       4.38646460E-03
  0.144690007       4.53207735E-03
  0.144899994       4.67438344E-03
  0.145109996       4.81312955E-03
  0.145319998       4.94806468E-03
  0.145530000       5.07893972E-03
  0.145740002       5.20550692E-03
  0.145950004       5.32752275E-03
  0.146160007       5.44474600E-03
  0.146369994       5.55693870E-03
  0.146579996       5.66386804E-03
  0.146789998       5.76530397E-03
  0.147000000       5.86102204E-03
  0.147210002       5.95080340E-03
  0.147420004       6.03443338E-03
  0.147630006       6.11170428E-03
  0.147839993       6.18241588E-03
  0.148049995       6.24637306E-03
  0.148259997       6.30339002E-03
  0.148469999       6.35328703E-03
  0.148680001       6.39589317E-03
  0.148890004       6.43104594E-03
  0.149100006       6.45859167E-03
  0.149309993       6.47838647E-03
  0.149519995       6.49029575E-03
  0.149729997       6.49419473E-03
  0.149939999       6.48996839E-03
  0.150150001       6.47751242E-03
  0.150360003       6.45673368E-03
  0.150570005       6.42754976E-03
  0.150780007       6.38988800E-03
  0.150989994       6.34368742E-03
  0.151199996       6.28889818E-03
  0.151409999       6.22548303E-03
  0.151620001       6.15341356E-03
  0.151830003       6.07267395E-03
  0.152040005       5.98325860E-03
  0.152250007       5.88517264E-03
  0.152459994       5.77843236E-03
  0.152669996       5.66306524E-03
  0.152879998       5.53910900E-03
  0.153090000       5.40660881E-03
  0.153300002       5.26562240E-03
  0.153510004       5.11621684E-03
  0.153720006       4.95846802E-03
  0.153929994       4.79246024E-03
  0.154139996       4.61828569E-03
  0.154349998       4.43604542E-03
  0.154560000       4.24584933E-03
  0.154770002       4.04781150E-03
  0.154980004       3.84205393E-03
  0.155190006       3.62870586E-03
  0.155399993       3.40790208E-03
  0.155609995       3.17978347E-03
  0.155819997       2.94449483E-03
  0.156029999       2.70218658E-03
  0.156240001       2.45301519E-03
  0.156450003       2.19714036E-03
  0.156660005       1.93472626E-03
  0.156869993       1.66594016E-03
  0.157079995       1.39095332E-03
  0.157289997       1.10994210E-03
  0.157499999       8.23085720E-04
  0.157710001       5.30565390E-04
  0.157920003       2.32567792E-04
  0.158130005      -7.07170329E-05
  0.158340007      -3.79093777E-04
  0.158549994      -6.92364934E-04
  0.158759996      -1.01032795E-03
  0.158969998      -1.33277441E-03
  0.159180000      -1.65949308E-03
  0.159390002      -1.99026498E-03
  0.159600005      -2.32486567E-03
  0.159810007      -2.66306428E-03
  0.160019994      -3.00462148E-03
  0.160229996      -3.34928976E-03
  0.160439998      -3.69681371E-03
  0.160650000      -4.04692953E-03
  0.160860002      -4.39936295E-03
  0.161070004      -4.75382851E-03
  0.161280006      -5.11002680E-03
  0.161489993      -5.46764908E-03
  0.161699995      -5.82637172E-03
  0.161909997      -6.18585618E-03
  0.162120000      -6.54575136E-03
  0.162330002      -6.90569077E-03
  0.162540004      -7.26529118E-03
  0.162750006      -7.62415212E-03
  0.162959993      -7.98185635E-03
  0.163169995      -8.33796989E-03
  0.163379997      -8.69203825E-03
  0.163589999      -9.04358644E-03
  0.163800001      -9.39212088E-03
  0.164010003      -9.73713584E-03
  0.164220005      -1.00780996E-02
  0.164430007      -1.04144644E-02
  0.164639995      -1.07456613E-02
  0.164849997      -1.10711027E-02
  0.165059999      -1.13901803E-02
  0.165270001      -1.17022712E-02
  0.165480003      -1.20067345E-02
  0.165690005      -1.23029109E-02
  0.165900007      -1.25901299E-02
  0.166109994      -1.28677003E-02
  0.166319996      -1.31349210E-02
  0.166529998      -1.33910794E-02
  0.166740000      -1.36354482E-02
  0.166950002      -1.38672972E-02
  0.167160004      -1.40858879E-02
  0.167370006      -1.42904716E-02
  0.167579994      -1.44803021E-02
  0.167789996      -1.46546308E-02
  0.167999998      -1.48127163E-02
  0.168210000      -1.49538135E-02
  0.168420002      -1.50771830E-02
  0.168630004      -1.51821002E-02
  0.168840006      -1.52678518E-02
  0.169049993      -1.53337372E-02
  0.169259995      -1.53790740E-02
  0.169469997      -1.54031999E-02
  0.169679999      -1.54054752E-02
  0.169890001      -1.53852897E-02
  0.170100003      -1.53420633E-02
  0.170310006      -1.52752474E-02
  0.170519993      -1.51843280E-02
  0.170729995      -1.50688309E-02
  0.170939997      -1.49283251E-02
  0.171149999      -1.47624221E-02
  0.171360001      -1.45707801E-02
  0.171570003      -1.43531058E-02
  0.171780005      -1.41091598E-02
  0.171990007      -1.38387606E-02
  0.172199994      -1.35417804E-02
  0.172409996      -1.32181561E-02
  0.172619998      -1.28678875E-02
  0.172830001      -1.24910306E-02
  0.173040003      -1.20877083E-02
  0.173250005      -1.16581134E-02
  0.173460007      -1.12025086E-02
  0.173669994      -1.07212290E-02
  0.173879996      -1.02146706E-02
  0.174089998      -9.68330540E-03
  0.174300000      -9.12768021E-03
  0.174510002      -8.54840875E-03
  0.174720004      -7.94617925E-03
  0.174930006      -7.32174702E-03
  0.175139993      -6.67594187E-03
  0.175349995      -6.00965973E-03
  0.175559998      -5.32386964E-03
  0.175770000      -4.61960817E-03
  0.175980002      -3.89797916E-03
  0.176190004      -3.16014071E-03
  0.176400006      -2.40731682E-03
  0.176609993      -1.64079422E-03
  0.176819995      -8.61911103E-04
  0.177029997      -7.20726821E-05
  0.177239999       7.27274048E-04
  0.177450001       1.53464079E-03
  0.177660003       2.34848959E-03
  0.177870005       3.16723669E-03
  0.178080007       3.98926251E-03
  0.178289995       4.81291814E-03
  0.178499997       5.63652674E-03
  0.178709999       6.45838073E-03
  0.178920001       7.27676693E-03
  0.179130003       8.08994099E-03
  0.179340005       8.89614504E-03
  0.179550007       9.69363283E-03
  0.179759994       1.04806460E-02