   0.00000000       0.00000000    
   2.09999998E-04   0.00000000    
   4.19999997E-04   0.00000000    
   6.30000024E-04   0.00000000    
   8.39999993E-04  -2.11607955E-20
   1.04999996E-03  -2.05440024E-19
   1.26000005E-03  -1.06433888E-18
   1.47000002E-03  -3.91603473E-18
   1.67999999E-03  -1.14505868E-17
   1.88999996E-03  -2.81715879E-17
   2.09999993E-03  -6.01616930E-17
   2.30999989E-03  -1.13197748E-16
   2.52000010E-03  -1.87682212E-16
   2.73000007E-03  -2.68163855E-16
   2.94000003E-03  -3.04410062E-16
   3.15000000E-03  -1.80109380E-16
   3.35999997E-03   3.35736623E-16
   3.56999994E-03   1.66070741E-15
   3.77999991E-03   4.50100476E-15
   3.99000011E-03   9.99136941E-15
   4.19999985E-03   1.98814862E-14
   4.41000005E-03   3.67776657E-14
   4.61999979E-03   6.44488735E-14
   4.82999999E-03   1.08205477E-13
   5.04000019E-03   1.75358751E-13
   5.24999993E-03   2.75766931E-13
   5.46000013E-03   4.22471980E-13
   5.66999987E-03   6.32427650E-13
   5.88000007E-03   9.27315624E-13
   6.08999981E-03   1.33444471E-12
   6.30000001E-03   1.88771438E-12
   6.51000021E-03   2.62862735E-12
   6.71999995E-03   3.60732624E-12
   6.93000015E-03   4.88361955E-12
   7.13999989E-03   6.52794832E-12
   7.35000009E-03   8.62225829E-12
   7.55999982E-03   1.12607050E-11
   7.77000003E-03   1.45501259E-11
   7.98000023E-03   1.86102141E-11
   8.19000043E-03   2.35733204E-11
   8.39999970E-03   2.95837833E-11
   8.60999990E-03   3.67966872E-11
   8.82000010E-03   4.53760120E-11
   9.03000031E-03   5.54920172E-11
   9.23999958E-03   6.73178249E-11
   9.44999978E-03   8.10250617E-11
   9.65999998E-03   9.67786615E-11
   9.87000018E-03   1.14730524E-10
   1.00800004E-02   1.35012126E-10
   1.02899997E-02   1.57726235E-10
   1.04999999E-02   1.82937415E-10
   1.07100001E-02   2.10661544E-10
   1.09200003E-02   2.40854531E-10
   1.11300005E-02   2.73400164E-10
   1.13399997E-02   3.08097325E-10
   1.15499999E-02   3.44646783E-10
   1.17600001E-02   3.82637866E-10
   1.19700003E-02   4.21535168E-10
   1.21799996E-02   4.60665728E-10
   1.23899998E-02   4.99207342E-10
   1.26000000E-02   5.36177935E-10
   1.28100002E-02   5.70426428E-10
   1.30200004E-02   6.00626382E-10
   1.32299997E-02   6.25272445E-10
   1.34399999E-02   6.42679965E-10
   1.36500001E-02   6.50988541E-10
   1.38600003E-02   6.48169907E-10
   1.40699996E-02   6.32041197E-10
   1.42799998E-02   6.00284045E-10
   1.44900000E-02   5.50469115E-10
   1.47000002E-02   4.80087303E-10
   1.49100004E-02   3.86588261E-10
   1.51199996E-02   2.67424916E-10
   1.53299998E-02   1.20106466E-10
   1.55400001E-02  -5.77419570E-11
   1.57500003E-02  -2.68313177E-10
   1.59600005E-02  -5.13544374E-10
   1.61700007E-02  -7.95036759E-10
   1.63800009E-02  -1.11397069E-09
   1.65899992E-02  -1.47101475E-09
   1.67999994E-02  -1.86623250E-09
   1.70099996E-02  -2.29898522E-09
   1.72199998E-02  -2.76783596E-09
   1.74300000E-02  -3.27045169E-09
   1.76400002E-02  -3.80351084E-09
   1.78500004E-02  -4.36261116E-09
   1.80600006E-02  -4.94219066E-09
   1.82700008E-02  -5.53545343E-09
   1.84799992E-02  -6.13430995E-09
   1.86899994E-02  -6.72933043E-09
   1.88999996E-02  -7.30971550E-09
   1.91099998E-02  -7.86329135E-09
   1.93200000E-02  -8.37651903E-09
   1.95300002E-02  -8.83454021E-09
   1.97400004E-02  -9.22123800E-09
   1.99500006E-02  -9.51934354E-09
   2.01600008E-02  -9.71055858E-09
   2.03699991E-02  -9.77572512E-09
   2.05799993E-02  -9.69502256E-09
   2.07899995E-02  -9.44820489E-09
   2.09999997E-02  -9.01487507E-09
   2.12099999E-02  -8.37479153E-09
   2.14200001E-02  -7.50821272E-09
   2.16300003E-02  -6.39627995E-09
   2.18400005E-02  -5.02142639E-09
   2.20500007E-02  -3.36781714E-09
   2.22600009E-02  -1.42181755E-09
   2.24699993E-02   8.27524493E-10
   2.26799995E-02   3.38797035E-09
   2.28899997E-02   6.26357899E-09
   2.30999999E-02   9.45419742E-09
   2.33100001E-02   1.29549429E-08
   2.35200003E-02   1.67557150E-08
   2.37300005E-02   2.08407158E-08
   2.39400007E-02   2.51880010E-08
   2.41500009E-02   2.97690903E-08
   2.43599992E-02   3.45486058E-08
   2.45699994E-02   3.94840072E-08
   2.47799996E-02   4.45253541E-08
   2.49899998E-02   4.96151920E-08
   2.52000000E-02   5.46885168E-08
   2.54100002E-02   5.96728285E-08
   2.56200004E-02   6.44883471E-08
   2.58300006E-02   6.90483049E-08
   2.60400008E-02   7.32593577E-08
   2.62499992E-02   7.70221931E-08
   2.64599994E-02   8.02322546E-08
   2.66699996E-02   8.27805522E-08
   2.68799998E-02   8.45547277E-08
   2.70900000E-02   8.54401918E-08
   2.73000002E-02   8.53214388E-08
   2.75100004E-02   8.40834602E-08
   2.77200006E-02   8.16133721E-08
   2.79300008E-02   7.78020777E-08
   2.81399991E-02   7.25461291E-08
   2.83499993E-02   6.57496386E-08
   2.85599995E-02   5.73262824E-08
   2.87699997E-02   4.72013681E-08
   2.89799999E-02   3.53139740E-08
   2.91900001E-02   2.16190674E-08
   2.94000003E-02   6.08964390E-09
   2.96100006E-02  -1.12811884E-08
   2.98200008E-02  -3.04781658E-08
   3.00299991E-02  -5.14619387E-08
   3.02399993E-02  -7.41672608E-08
   3.04499995E-02  -9.85013742E-08
   3.06599997E-02  -1.24342534E-07
   3.08699999E-02  -1.51538813E-07
   3.10800001E-02  -1.79907190E-07
   3.12899984E-02  -2.09232823E-07
   3.15000005E-02  -2.39268928E-07
   3.17099988E-02  -2.69736546E-07
   3.19200009E-02  -3.00325297E-07
   3.21299993E-02  -3.30694093E-07
   3.23400013E-02  -3.60472455E-07
   3.25499997E-02  -3.89262368E-07
   3.27600017E-02  -4.16640518E-07
   3.29700001E-02  -4.42160882E-07
   3.31799984E-02  -4.65358227E-07
   3.33900005E-02  -4.85751627E-07
   3.35999988E-02  -5.02848650E-07
   3.38100009E-02  -5.16150124E-07
   3.40199992E-02  -5.25155428E-07
   3.42300013E-02  -5.29367640E-07
   3.44399996E-02  -5.28299779E-07
   3.46500017E-02  -5.21480843E-07
   3.48600000E-02  -5.08462620E-07
   3.50699984E-02  -4.88826572E-07
   3.52800004E-02  -4.62190485E-07
   3.54899988E-02  -4.28215856E-07
   3.57000008E-02  -3.86615255E-07
   3.59099992E-02  -3.37159150E-07
   3.61200012E-02  -2.79683093E-07
   3.63299996E-02  -2.14094527E-07
   3.65400016E-02  -1.40379470E-07
   3.67500000E-02  -5.86084852E-08
   3.69599983E-02   3.10574784E-08
   3.71700004E-02   1.28361989E-07
   3.73799987E-02   2.32948736E-07
   3.75900008E-02   3.44357716E-07
   3.77999991E-02   4.62022513E-07
   3.80100012E-02   5.85268197E-07
   3.82199995E-02   7.13310612E-07
   3.84300016E-02   8.45256466E-07
   3.86399999E-02   9.80104574E-07
   3.88499983E-02   1.11674876E-06
   3.90600003E-02   1.25398117E-06
   3.92699987E-02   1.39049791E-06
   3.94800007E-02   1.52490497E-06
   3.96899991E-02   1.65572624E-06
   3.99000011E-02   1.78141306E-06
   4.01099995E-02   1.90035405E-06
   4.03200015E-02   2.01088733E-06
   4.05299999E-02   2.11131305E-06
   4.07399982E-02   2.19990829E-06
   4.09500003E-02   2.27494183E-06
   4.11599986E-02   2.33469063E-06
   4.13700007E-02   2.37745735E-06
   4.15799990E-02   2.40158852E-06
   4.17900011E-02   2.40549298E-06
   4.19999994E-02   2.38766097E-06
   4.22100015E-02   2.34668482E-06
   4.24199998E-02   2.28127828E-06
   4.26299982E-02   2.19029539E-06
   4.28400002E-02   2.07275161E-06
   4.30499986E-02   1.92784228E-06
   4.32600006E-02   1.75496154E-06
   4.34699990E-02   1.55372027E-06
   4.36800011E-02   1.32396235E-06
   4.38899994E-02   1.06578113E-06
   4.41000015E-02   7.79532627E-07
   4.43099998E-02   4.65848956E-07
   4.45200019E-02   1.25648143E-07
   4.47300002E-02  -2.39856973E-07
   4.49399985E-02  -6.29152339E-07
   4.51500006E-02  -1.04041862E-06
   4.53599989E-02  -1.47153048E-06
   4.55700010E-02  -1.92005700E-06
   4.57799993E-02  -2.38326652E-06
   4.59900014E-02  -2.85813303E-06
   4.61999997E-02  -3.34134688E-06
   4.64100018E-02  -3.82932740E-06
   4.66200002E-02  -4.31823810E-06
   4.68299985E-02  -4.80400831E-06
   4.70400006E-02  -5.28235250E-06
   4.72499989E-02  -5.74879641E-06
   4.74600010E-02  -6.19870525E-06
   4.76699993E-02  -6.62731509E-06
   4.78800014E-02  -7.02976558E-06
   4.80899997E-02  -7.40113501E-06
   4.83000018E-02  -7.73647753E-06
   4.85100001E-02  -8.03086732E-06
   4.87199984E-02  -8.27943404E-06
   4.89300005E-02  -8.47741194E-06
   4.91399989E-02  -8.62018078E-06
   4.93500009E-02  -8.70331132E-06
   4.95599993E-02  -8.72261444E-06
   4.97700013E-02  -8.67418294E-06
   4.99799997E-02  -8.55443614E-06
   5.01900017E-02  -8.36017080E-06
   5.04000001E-02  -8.08860113E-06
   5.06099984E-02  -7.73740339E-06
   5.08200005E-02  -7.30475358E-06
   5.10299988E-02  -6.78937113E-06
   5.12400009E-02  -6.19055118E-06
   5.14499992E-02  -5.50819868E-06
   5.16600013E-02  -4.74286117E-06
   5.18699996E-02  -3.89575280E-06
   5.20800017E-02  -2.96877647E-06
   5.22900000E-02  -1.96454312E-06
   5.24999984E-02  -8.86385692E-07
   5.27100004E-02   2.61634483E-07
   5.29199988E-02   1.47472213E-06
   5.31300008E-02   2.74734998E-06
   5.33399992E-02   4.07326706E-06
   5.35500012E-02   5.44551131E-06
   5.37599996E-02   6.85642681E-06
   5.39700016E-02   8.29769124E-06
   5.41800000E-02   9.76034244E-06
   5.43899983E-02   1.12348198E-05
   5.46000004E-02   1.27109997E-05
   5.48099987E-02   1.41782484E-05
   5.50200008E-02   1.56254737E-05
   5.52299991E-02   1.70411822E-05
   5.54400012E-02   1.84135497E-05
   5.56499995E-02   1.97304744E-05
   5.58600016E-02   2.09796726E-05
   5.60699999E-02   2.21487353E-05
   5.62799983E-02   2.32252241E-05
   5.64900003E-02   2.41967500E-05
   5.66999987E-02   2.50510620E-05
   5.69100007E-02   2.57761421E-05
   5.71199991E-02   2.63602924E-05
   5.73300011E-02   2.67922333E-05
   5.75399995E-02   2.70611945E-05
   5.77500015E-02   2.71570207E-05
   5.79599999E-02   2.70702676E-05
   5.81699982E-02   2.67922787E-05
   5.83800003E-02   2.63153015E-05
   5.85899986E-02   2.56325675E-05
   5.88000007E-02   2.47383887E-05
   5.90099990E-02   2.36282322E-05
   5.92200011E-02   2.22988183E-05
   5.94299994E-02   2.07481844E-05
   5.96400015E-02   1.89757629E-05
   5.98499998E-02   1.69824489E-05
   6.00599982E-02   1.47706569E-05
   6.02700002E-02   1.23443751E-05
   6.04799986E-02   9.70921337E-06
   6.06900007E-02   6.87243300E-06
   6.08999990E-02   3.84298073E-06
   6.11100011E-02   6.31503781E-07
   6.13199994E-02  -2.74964168E-06
   6.15300015E-02  -6.28639236E-06
   6.17399998E-02  -9.96299241E-06
   6.19499981E-02  -1.37620154E-05
   6.21600002E-02  -1.76644062E-05
   6.23699985E-02  -2.16495173E-05
   6.25799969E-02  -2.56951844E-05
   6.27899989E-02  -2.97777933E-05
   6.30000010E-02  -3.38723548E-05
   6.32100031E-02  -3.79526209E-05
   6.34199977E-02  -4.19911776E-05
   6.36299998E-02  -4.59595867E-05
   6.38400018E-02  -4.98285081E-05
   6.40499964E-02  -5.35678482E-05
   6.42599985E-02  -5.71469318E-05
   6.44700006E-02  -6.05346504E-05
   6.46800026E-02  -6.36996629E-05
   6.48899972E-02  -6.66105771E-05
   6.50999993E-02  -6.92361791E-05
   6.53100014E-02  -7.15455972E-05
   6.55200034E-02  -7.35085632E-05
   6.57299981E-02  -7.50955878E-05
   6.59400001E-02  -7.62782583E-05
   6.61500022E-02  -7.70294137E-05
   6.63599968E-02  -7.73234206E-05
   6.65699989E-02  -7.71363921E-05
   6.67800009E-02  -7.64464567E-05
   6.69900030E-02  -7.52339547E-05
   6.71999976E-02  -7.34817222E-05
   6.74099997E-02  -7.11752800E-05
   6.76200017E-02  -6.83030958E-05
   6.78299963E-02  -6.48567802E-05
   6.80399984E-02  -6.08312948E-05
   6.82500005E-02  -5.62251662E-05
   6.84600025E-02  -5.10406462E-05
   6.86699972E-02  -4.52838758E-05
   6.88799992E-02  -3.89650268E-05
   6.90900013E-02  -3.20984655E-05
   6.93000033E-02  -2.47028129E-05
   6.95099980E-02  -1.68010374E-05
   6.97200000E-02  -8.42051577E-06
   6.99300021E-02   4.06945873E-07
   7.01399967E-02   9.64511491E-06
   7.03499988E-02   1.92533680E-05
   7.05600008E-02   2.91867618E-05
   7.07700029E-02   3.93961200E-05
   7.09799975E-02   4.98281843E-05
   7.11899996E-02   6.04257621E-05
   7.14000016E-02   7.11279645E-05
   7.16100037E-02   8.18704139E-05
   7.18199983E-02   9.25855347E-05
   7.20300004E-02   1.03202881E-04
   7.22400025E-02   1.13649454E-04
   7.24499971E-02   1.23850114E-04
   7.26599991E-02   1.33727997E-04
   7.28700012E-02   1.43204947E-04
   7.30800033E-02   1.52201959E-04
   7.32899979E-02   1.60639800E-04
   7.34999999E-02   1.68439437E-04
   7.37100020E-02   1.75522626E-04
   7.39199966E-02   1.81812487E-04
   7.41299987E-02   1.87234094E-04
   7.43400007E-02   1.91715109E-04
   7.45500028E-02   1.95186367E-04
   7.47599974E-02   1.97582456E-04
   7.49699995E-02   1.98842463E-04
   7.51800016E-02   1.98910391E-04
   7.53900036E-02   1.97735964E-04
   7.55999982E-02   1.95275119E-04
   7.58100003E-02   1.91490544E-04
   7.60200024E-02   1.86352292E-04
   7.62299970E-02   1.79838287E-04
   7.64399990E-02   1.71934735E-04
   7.66500011E-02   1.62636643E-04
   7.68600032E-02   1.51948174E-04
   7.70699978E-02   1.39882977E-04
   7.72799999E-02   1.26464525E-04
   7.74900019E-02   1.11726236E-04
   7.76999965E-02   9.57117663E-05
   7.79099986E-02   7.84750009E-05
   7.81200007E-02   6.00800959E-05
   7.83300027E-02   4.06014587E-05
   7.85399973E-02   2.01235707E-05
   7.87499994E-02  -1.25921349E-06
   7.89600015E-02  -2.34429444E-05
   7.91700035E-02  -4.63144606E-05
   7.93799981E-02  -6.97518699E-05
   7.95900002E-02  -9.36250653E-05
   7.98000023E-02  -1.17796342E-04
   8.00099969E-02  -1.42121149E-04
   8.02199990E-02  -1.66448794E-04
   8.04300010E-02  -1.90623352E-04
   8.06400031E-02  -2.14484564E-04
   8.08499977E-02  -2.37868822E-04
   8.10599998E-02  -2.60610221E-04
   8.12700018E-02  -2.82541587E-04
   8.14799964E-02  -3.03495704E-04
   8.16899985E-02  -3.23306507E-04
   8.19000006E-02  -3.41810228E-04
   8.21100026E-02  -3.58846592E-04
   8.23199973E-02  -3.74260271E-04
   8.25299993E-02  -3.87901790E-04
   8.27400014E-02  -3.99629120E-04
   8.29500034E-02  -4.09308675E-04
   8.31599981E-02  -4.16816620E-04
   8.33700001E-02  -4.22039971E-04
   8.35800022E-02  -4.24877828E-04
   8.37899968E-02  -4.25242266E-04
   8.39999989E-02  -4.23059362E-04
   8.42100009E-02  -4.18270269E-04
   8.44200030E-02  -4.10831970E-04
   8.46299976E-02  -4.00717719E-04
   8.48399997E-02  -3.87918204E-04
   8.50500017E-02  -3.72441602E-04
   8.52599964E-02  -3.54314252E-04
   8.54699984E-02  -3.33580712E-04
   8.56800005E-02  -3.10304080E-04
   8.58900025E-02  -2.84565904E-04
   8.60999972E-02  -2.56466010E-04
   8.63099992E-02  -2.26122327E-04
   8.65200013E-02  -1.93670348E-04
   8.67300034E-02  -1.59262636E-04
   8.69399980E-02  -1.23068094E-04
   8.71500000E-02  -8.52710800E-05
   8.73600021E-02  -4.60705014E-05
   8.75699967E-02  -5.67860570E-06
   8.77799988E-02   3.56802266E-05
   8.79900008E-02   7.77708265E-05
   8.82000029E-02   1.20348719E-04
   8.84099975E-02   1.63161720E-04
   8.86199996E-02   2.05951568E-04
   8.88300017E-02   2.48455704E-04
   8.90400037E-02   2.90408963E-04
   8.92499983E-02   3.31545598E-04
   8.94600004E-02   3.71601083E-04
   8.96700025E-02   4.10313922E-04
   8.98799971E-02   4.47427738E-04
   9.00899991E-02   4.82693140E-04
   9.03000012E-02   5.15869644E-04
   9.05100033E-02   5.46727446E-04
   9.07199979E-02   5.75049082E-04
   9.09299999E-02   6.00631465E-04
   9.11400020E-02   6.23287284E-04
   9.13499966E-02   6.42846571E-04
   9.15599987E-02   6.59158104E-04
   9.17700008E-02   6.72090740E-04
   9.19800028E-02   6.81534526E-04
   9.21899974E-02   6.87401742E-04
   9.23999995E-02   6.89627312E-04
   9.26100016E-02   6.88170025E-04
   9.28200036E-02   6.83012593E-04
   9.30299982E-02   6.74162002E-04
   9.32400003E-02   6.61649683E-04
   9.34500024E-02   6.45531167E-04
   9.36599970E-02   6.25885907E-04
   9.38699991E-02   6.02816755E-04
   9.40800011E-02   5.76449092E-04
   9.42900032E-02   5.46930125E-04
   9.44999978E-02   5.14427666E-04
   9.47099999E-02   4.79128677E-04
   9.49200019E-02   4.41238139E-04
   9.51299965E-02   4.00977355E-04
   9.53399986E-02   3.58582067E-04
   9.55500007E-02   3.14300705E-04
   9.57600027E-02   2.68392294E-04
   9.59699973E-02   2.21124516E-04
   9.61799994E-02   1.72771368E-04
   9.63900015E-02   1.23611040E-04
   9.66000035E-02   7.39235984E-05
   9.68099982E-02   2.39887522E-05
   9.70200002E-02  -2.59164644E-05
   9.72300023E-02  -7.55199071E-05
   9.74399969E-02  -1.24556638E-04
   9.76499990E-02  -1.72771004E-04
   9.78600010E-02  -2.19918657E-04
   9.80700031E-02  -2.65768555E-04
   9.82799977E-02  -3.10104748E-04
   9.84899998E-02  -3.52728093E-04
   9.87000018E-02  -3.93457682E-04
   9.89099964E-02  -4.32132336E-04
   9.91199985E-02  -4.68611513E-04
   9.93300006E-02  -5.02776413E-04
   9.95400026E-02  -5.34530671E-04
   9.97499973E-02  -5.63800626E-04
   9.99599993E-02  -5.90535754E-04
  0.100170001      -6.14708755E-04
  0.100380003      -6.36314973E-04
  0.100589998      -6.55372278E-04
  0.100800000      -6.71920076E-04
  0.101010002      -6.86018553E-04
  0.101219997      -6.97747106E-04
  0.101429999      -7.07203289E-04
  0.101640001      -7.14501250E-04
  0.101850003      -7.19769625E-04
  0.102059998      -7.23149744E-04
  0.102270000      -7.24793412E-04
  0.102480002      -7.24860409E-04
  0.102689996      -7.23516627E-04
  0.102899998      -7.20931042E-04
  0.103110000      -7.17273448E-04
  0.103320003      -7.12711888E-04
  0.103529997      -7.07409868E-04
  0.103739999      -7.01523735E-04
  0.103950001      -6.95200404E-04
  0.104160003      -6.88574568E-04
  0.104369998      -6.81766600E-04
  0.104580000      -6.74879935E-04
  0.104790002      -6.67999324E-04
  0.104999997      -6.61188853E-04
  0.105209999      -6.54490083E-04
  0.105420001      -6.47920591E-04
  0.105630003      -6.41472929E-04
  0.105839998      -6.35113392E-04
  0.106050000      -6.28781680E-04
  0.106260002      -6.22390129E-04
  0.106470004      -6.15823956E-04
  0.106679998      -6.08941482E-04
  0.106890000      -6.01574604E-04
  0.107100002      -5.93529781E-04
  0.107309997      -5.84589434E-04
  0.107519999      -5.74513397E-04
  0.107730001      -5.63040900E-04
  0.107940003      -5.49892720E-04
  0.108149998      -5.34773862E-04
  0.108360000      -5.17376466E-04
  0.108570002      -4.97382425E-04
  0.108779997      -4.74467379E-04
  0.108989999      -4.48303850E-04
  0.109200001      -4.18565032E-04
  0.109410003      -3.84928921E-04
  0.109619997      -3.47082154E-04
  0.109830000      -3.04724206E-04
  0.110040002      -2.57571664E-04
  0.110250004      -2.05362419E-04
  0.110459998      -1.47859886E-04
  0.110670000      -8.48570999E-05
  0.110880002      -1.61809148E-05
  0.111089997       5.83043184E-05
  0.111299999       1.38692703E-04
  0.111510001       2.25033378E-04
  0.111720003       3.17327213E-04
  0.111929998       4.15523769E-04
  0.112140000       5.19518857E-04
  0.112350002       6.29151764E-04
  0.112559997       7.44203688E-04
  0.112769999       8.64395930E-04
  0.112980001       9.89389257E-04
  0.113190003       1.11878267E-03
  0.113399997       1.25211373E-03
  0.113609999       1.38885865E-03
  0.113820001       1.52843317E-03
  0.114030004       1.67019409E-03
  0.114239998       1.81344105E-03
  0.114450000       1.95741863E-03
  0.114660002       2.10132031E-03
  0.114869997       2.24429020E-03
  0.115079999       2.38542864E-03
  0.115290001       2.52379500E-03
  0.115500003       2.65841465E-03
  0.115709998       2.78828153E-03
  0.115920000       2.91236630E-03
  0.116130002       3.02962051E-03
  0.116339996       3.13898386E-03
  0.116549999       3.23939091E-03
  0.116760001       3.32977762E-03
  0.116970003       3.40908859E-03
  0.117179997       3.47628421E-03
  0.117389999       3.53034795E-03
  0.117600001       3.57029401E-03
  0.117810003       3.59517429E-03
  0.118019998       3.60408775E-03
  0.118230000       3.59618454E-03
  0.118440002       3.57067515E-03
  0.118649997       3.52683710E-03
  0.118859999       3.46402149E-03
  0.119070001       3.38165928E-03
  0.119280003       3.27926781E-03
  0.119489998       3.15645593E-03
  0.119700000       3.01292958E-03
  0.119910002       2.84849666E-03
  0.120119996       2.66307150E-03
  0.120329998       2.45667784E-03
  0.120540000       2.22945260E-03
  0.120750003       1.98164792E-03
  0.120959997       1.71363400E-03
  0.121169999       1.42589910E-03
  0.121380001       1.11905125E-03
  0.121590003       7.93817453E-04
  0.121799998       4.51043510E-04
  0.122010000       9.16921854E-05
  0.122220002      -2.83158850E-04
  0.122429997      -6.72319846E-04
  0.122639999      -1.07449235E-03
  0.122850001      -1.48827292E-03
  0.123060003      -1.91215891E-03
  0.123269998      -2.34455289E-03
  0.123480000      -2.78376928E-03
  0.123690002      -3.22803971E-03
  0.123899996      -3.67552252E-03
  0.124109998      -4.12430754E-03
  0.124320000      -4.57242597E-03
  0.124530002      -5.01785707E-03
  0.124739997      -5.45853842E-03
  0.124949999      -5.89237548E-03
  0.125159994      -6.31724857E-03
  0.125369996      -6.73102494E-03
  0.125579998      -7.13156769E-03
  0.125790000      -7.51674594E-03
  0.126000002      -7.88444374E-03
  0.126210004      -8.23257118E-03
  0.126420006      -8.55907612E-03
  0.126629993      -8.86194874E-03
  0.126839995      -9.13923793E-03
  0.127049997      -9.38905589E-03
  0.127260000      -9.60959308E-03
  0.127470002      -9.79912095E-03
  0.127680004      -9.95600503E-03
  0.127890006      -1.00787152E-02
  0.128099993      -1.01658292E-02
  0.128309995      -1.02160433E-02
  0.128519997      -1.02281813E-02
  0.128729999      -1.02011953E-02
  0.128940001      -1.01341791E-02
  0.129150003      -1.00263739E-02
  0.129360005      -9.87716671E-03
  0.129570007      -9.68610123E-03
  0.129779994      -9.45288315E-03
  0.129989997      -9.17737745E-03
  0.130199999      -8.85961764E-03
  0.130410001      -8.49980395E-03
  0.130620003      -8.09830800E-03
  0.130830005      -7.65567087E-03
  0.131040007      -7.17260595E-03
  0.131249994      -6.64999802E-03
  0.131459996      -6.08890224E-03
  0.131669998      -5.49054286E-03
  0.131880000      -4.85630985E-03
  0.132090002      -4.18775575E-03
  0.132300004      -3.48659488E-03
  0.132510006      -2.75469781E-03
  0.132719994      -1.99408480E-03
  0.132929996      -1.20692281E-03
  0.133139998      -3.95518698E-04
  0.133350000       4.37687122E-04
  0.133560002       1.29012787E-03
  0.133770004       2.15911772E-03
  0.133980006       3.04186041E-03
  0.134189993       3.93545674E-03
  0.134399995       4.83691506E-03
  0.134609997       5.74315991E-03
  0.134819999       6.65104203E-03
  0.135030001       7.55734695E-03
  0.135240003       8.45880993E-03
  0.135450006       9.35212336E-03
  0.135659993       1.02339471E-02
  0.135869995       1.11009227E-02
  0.136079997       1.19496826E-02
  0.136289999       1.27768675E-02
  0.136500001       1.35791311E-02
  0.136710003       1.43531542E-02
  0.136920005       1.50956623E-02
  0.137130007       1.58034302E-02
  0.137339994       1.64732989E-02
  0.137549996       1.71021856E-02
  0.137759998       1.76871028E-02
  0.137970001       1.82251576E-02
  0.138180003       1.87135767E-02
  0.138390005       1.91497058E-02
  0.138600007       1.95310321E-02
  0.138809994       1.98551901E-02
  0.139019996       2.01199688E-02
  0.139229998       2.03233324E-02
  0.139440000       2.04634164E-02
  0.139650002       2.05385517E-02
  0.139860004       2.05472596E-02
  0.140070006       2.04882752E-02
  0.140279993       2.03605443E-02
  0.140489995       2.01632287E-02
  0.140699998       1.98957194E-02
  0.140910000       1.95576474E-02
  0.141120002       1.91488694E-02
  0.141330004       1.86694935E-02
  0.141540006       1.81198735E-02
  0.141749993       1.75006073E-02
  0.141959995       1.68125443E-02
  0.142169997       1.60567854E-02
  0.142379999       1.52346827E-02
  0.142590001       1.43478382E-02
  0.142800003       1.33981025E-02
  0.143010005       1.23875700E-02
  0.143220007       1.13185802E-02
  0.143429995       1.01937093E-02
  0.143639997       9.01576318E-03
  0.143849999       7.78777711E-03
  0.144060001       6.51300233E-03
  0.144270003       5.19490149E-03
  0.144480005       3.83713958E-03
  0.144690007       2.44357227E-03
  0.144899994       1.01823849E-03
  0.145109996      -4.34652437E-04
  0.145319998      -1.91073224E-03
  0.145530000      -3.40548647E-03
  0.145740002      -4.91426606E-03
  0.145950004      -6.43230090E-03
  0.146160007      -7.95471482E-03
  0.146369994      -9.47653875E-03
  0.146579996      -1.09927263E-02
  0.146789998      -1.24981664E-02
  0.147000000      -1.39876995E-02
  0.147210002      -1.54561345E-02
  0.147420004      -1.68982577E-02
  0.147630006      -1.83088556E-02
  0.147839993      -1.96827259E-02
  0.148049995      -2.10146867E-02
  0.148259997      -2.22996008E-02
  0.148469999      -2.35323813E-02
  0.148680001      -2.47080140E-02
  0.148890004      -2.58215573E-02
  0.149100006      -2.68681645E-02
  0.149309993      -2.78430972E-02
  0.149519995      -2.87417267E-02
  0.149729997      -2.95595545E-02
  0.149939999      -3.02922167E-02
  0.150150001      -3.09354961E-02
  0.150360003      -3.14853191E-02
  0.150570005      -3.19377780E-02
  0.150780007      -3.22891325E-02
  0.150989994      -3.25358100E-02
  0.151199996      -3.26744132E-02
  0.151409999      -3.27017121E-02
  0.151620001      -3.26146670E-02
  0.151830003      -3.24104168E-02
  0.152040005      -3.20862830E-02
  0.152250007      -3.16397622E-02
  0.152459994      -3.10685337E-02
  0.152669996      -3.03704459E-02
  0.152879998      -2.95435209E-02
  0.153090000      -2.85859499E-02
  0.153300002      -2.74960827E-02
  0.153510004      -2.62724292E-02
  0.153720006      -2.49136407E-02
  0.153929994      -2.34185103E-02
  0.154139996      -2.17859689E-02
  0.154349998      -2.00150665E-02
  0.154560000      -1.81049723E-02
  0.154770002      -1.60549562E-02
  0.154980004      -1.38643868E-02
  0.155190006      -1.15327192E-02
  0.155399993      -9.05948319E-03
  0.155609995      -6.44427212E-03
  0.155819997      -3.68673587E-03
  0.156029999      -7.86566990E-04
  0.156240001       2.25650542E-03
  0.156450003       5.44272549E-03
  0.156660005       8.77232291E-03
  0.156869993       1.22455200E-02
  0.157079995       1.58625431E-02
  0.157289997       1.96236279E-02
  0.157499999       2.35290248E-02
  0.157710001       2.75790077E-02
  0.157920003       3.17738838E-02
  0.158130005       3.61139886E-02
  0.158340007       4.05997038E-02
  0.158549994       4.52314503E-02
  0.158759996       5.00097014E-02
  0.158969998       5.49349636E-02
  0.159180000       6.00078069E-02
  0.159390002       6.52288347E-02
  0.159600005       7.05987215E-02
  0.159810007       7.61181489E-02
  0.160019994       8.17878693E-02
  0.160229996       8.76086727E-02
  0.160439998       9.35813636E-02
  0.160650000       9.97067913E-02
  0.160860002      0.105985820    
  0.161070004      0.112419337    
  0.161280006      0.119008213    
  0.161489993      0.125753328    
  0.161699995      0.132655576    
  0.161909997      0.139715806    
  0.162120000      0.146934822    
  0.162330002      0.154313415    
  0.162540004      0.161852300    
  0.162750006      0.169552132    
  0.162959993      0.177413493    
  0.163169995      0.185436875    
  0.163379997      0.193622693    
  0.163589999      0.201971203    
  0.163800001      0.210482582    
  0.164010003      0.219156846    
  0.164220005      0.227993906    
  0.164430007      0.236993462    
  0.164639995      0.246155098    
  0.164849997      0.255478263    
  0.165059999      0.264962077    
  0.165270001      0.274605632    
  0.165480003      0.284407705    
  0.165690005      0.294366956    
  0.165900007      0.304481775    
  0.166109994      0.314750403    
  0.166319996      0.325170815    
  0.166529998      0.335740775    
  0.166740000      0.346457869    
  0.166950002      0.357319415    
  0.167160004      0.368322551    
  0.167370006      0.379464239    
  0.167579994      0.390741140    
  0.167789996      0.402149767    
  0.167999998      0.413686454    
  0.168210000      0.425347298    
  0.168420002      0.437128216    
  0.168630004      0.449025065    
  0.168840006      0.461033434    
  0.169049993      0.473148793    
  0.169259995      0.485366493    
  0.169469997      0.497681707    
  0.169679999      0.510089517    
  0.169890001      0.522585034    
  0.170100003      0.535163164    
  0.170310006      0.547818899    
  0.170519993      0.560546935    
  0.170729995      0.573342264    
  0.170939997      0.586199522    
  0.171149999      0.599113762    
  0.171360001      0.612079799    
  0.171570003      0.625092506    
  0.171780005      0.638146937    
  0.171990007      0.651238203    
  0.172199994      0.664361596    
  0.172409996      0.677512288    
  0.172619998      0.690685809    
  0.172830001      0.703877807    
  0.173040003      0.717084110    
  0.173250005      0.730300605    
  0.173460007      0.743523538    
  0.173669994      0.756749213    
  0.173879996      0.769974172    
  0.174089998      0.783195376    
  0.174300000      0.796409845    
  0.174510002      0.809614897    
  0.174720004      0.822808027    
  0.174930006      0.835987091    
  0.175139993      0.849150181    
  0.175349995      0.862295508    
  0.175559998      0.875421643    
  0.175770000      0.888527513    
  0.175980002      0.901612043    
  0.176190004      0.914674580    
  0.176400006      0.927714586    
  0.176609993      0.940731764    
  0.176819995      0.953726172    
  0.177029997      0.966697872    
  0.177239999      0.979647219    
  0.177450001      0.992574811    
  0.177660003       1.00548112    
  0.177870005       1.01836681    
  0.178080007       1.03123295    
  0.178289995       1.04408038    
  0.178499997       1.05691028    
  0.178709999       1.06972373    
  0.178920001       1.08252168    
  0.179130003       1.09530544    
  0.179340005       1.10807610    
  0.179550007       1.12083471    
  0.179759994       1.13358223    