   0.00000000       0.00000000    
   2.09999998E-04   0.00000000    
   4.19999997E-04   0.00000000    
   6.30000024E-04   0.00000000    
   8.39999993E-04   1.65257051E-20
   1.04999996E-03   9.57664797E-18
   1.26000005E-03   1.04129201E-16
   1.47000002E-03   6.11277314E-16
   1.67999999E-03   2.57069227E-15
   1.88999996E-03   8.68512771E-15
   2.09999993E-03   2.50625614E-14
   2.30999989E-03   6.41362980E-14
   2.52000010E-03   1.49236770E-13
   2.73000007E-03   3.21369098E-13
   2.94000003E-03   6.48819323E-13
   3.15000000E-03   1.24026386E-12
   3.35999997E-03   2.26208700E-12
   3.56999994E-03   3.96060355E-12
   3.77999991E-03   6.68985830E-12
   3.99000011E-03   1.09455960E-11
   4.19999985E-03   1.74058771E-11
   4.41000005E-03   2.69786624E-11
   4.61999979E-03   4.08564745E-11
   4.82999999E-03   6.05779940E-11
   5.04000019E-03   8.80961831E-11
   5.24999993E-03   1.25852093E-10
   5.46000013E-03   1.76853254E-10
   5.66999987E-03   2.44755077E-10
   5.88000007E-03   3.33943234E-10
   6.08999981E-03   4.49614512E-10
   6.30000001E-03   5.97853433E-10
   6.51000021E-03   7.85701060E-10
   6.71999995E-03   1.02121178E-09
   6.93000015E-03   1.31349520E-09
   7.13999989E-03   1.67273684E-09
   7.35000009E-03   2.11019424E-09
   7.55999982E-03   2.63816102E-09
   7.77000003E-03   3.26989968E-09
   7.98000023E-03   4.01952738E-09
   8.19000043E-03   4.90186070E-09
   8.39999970E-03   5.93220628E-09
   8.60999990E-03   7.12610060E-09
   8.82000010E-03   8.49898374E-09
   9.03000031E-03   1.00658113E-08
   9.23999958E-03   1.18406085E-08
   9.44999978E-03   1.38359466E-08
   9.65999998E-03   1.60623603E-08
   9.87000018E-03   1.85276914E-08
   1.00800004E-02   2.12363780E-08
   1.02899997E-02   2.41886671E-08
   1.04999999E-02   2.73797891E-08
   1.07100001E-02   3.07990824E-08
   1.09200003E-02   3.44290783E-08
   1.11300005E-02   3.82445542E-08
   1.13399997E-02   4.22115853E-08
   1.15499999E-02   4.62865941E-08
   1.17600001E-02   5.04154265E-08
   1.19700003E-02   5.45324674E-08
   1.21799996E-02   5.85597917E-08
   1.23899998E-02   6.24064711E-08
   1.26000000E-02   6.59678889E-08
   1.28100002E-02   6.91252851E-08
   1.30200004E-02   7.17454114E-08
   1.32299997E-02   7.36803614E-08
   1.34399999E-02   7.47676765E-08
   1.36500001E-02   7.48306377E-08
   1.38600003E-02   7.36788266E-08
   1.40699996E-02   7.11090280E-08
   1.42799998E-02   6.69063880E-08
   1.44900000E-02   6.08459558E-08
   1.47000002E-02   5.26945847E-08
   1.49100004E-02   4.22131698E-08
   1.51199996E-02   2.91592652E-08
   1.53299998E-02   1.32901326E-08
   1.55400001E-02  -5.63384450E-09
   1.57500003E-02  -2.78453314E-08
   1.59600005E-02  -5.35658735E-08
   1.61700007E-02  -8.30013533E-08
   1.63800009E-02  -1.16337056E-07
   1.65899992E-02  -1.53732515E-07
   1.67999994E-02  -1.95315920E-07
   1.70099996E-02  -2.41178469E-07
   1.72199998E-02  -2.91368536E-07
   1.74300000E-02  -3.45885525E-07
   1.76400002E-02  -4.04673756E-07
   1.78500004E-02  -4.67616417E-07
   1.80600006E-02  -5.34529761E-07
   1.82700008E-02  -6.05156856E-07
   1.84799992E-02  -6.79162667E-07
   1.86899994E-02  -7.56128316E-07
   1.88999996E-02  -8.35546757E-07
   1.91099998E-02  -9.16818408E-07
   1.93200000E-02  -9.99247959E-07
   1.95300002E-02  -1.08204165E-06
   1.97400004E-02  -1.16430499E-06
   1.99500006E-02  -1.24504277E-06
   2.01600008E-02  -1.32315927E-06
   2.03699991E-02  -1.39745919E-06
   2.05799993E-02  -1.46665127E-06
   2.07899995E-02  -1.52935218E-06
   2.09999997E-02  -1.58409216E-06
   2.12099999E-02  -1.62932236E-06
   2.14200001E-02  -1.66342352E-06
   2.16300003E-02  -1.68471672E-06
   2.18400005E-02  -1.69147518E-06
   2.20500007E-02  -1.68193787E-06
   2.22600009E-02  -1.65432550E-06
   2.24699993E-02  -1.60685670E-06
   2.26799995E-02  -1.53776739E-06
   2.28899997E-02  -1.44533010E-06
   2.30999999E-02  -1.32787625E-06
   2.33100001E-02  -1.18381820E-06
   2.35200003E-02  -1.01167382E-06
   2.37300005E-02  -8.10090683E-07
   2.39400007E-02  -5.77872356E-07
   2.41500009E-02  -3.14004723E-07
   2.43599992E-02  -1.76823658E-08
   2.45699994E-02   3.11664422E-07
   2.47799996E-02   6.74342914E-07
   2.49899998E-02   1.07037158E-06
   2.52000000E-02   1.49945470E-06
   2.54100002E-02   1.96095812E-06
   2.56200004E-02   2.45388514E-06
   2.58300006E-02   2.97685574E-06
   2.60400008E-02   3.52808729E-06
   2.62499992E-02   4.10537632E-06
   2.64599994E-02   4.70608711E-06
   2.66699996E-02   5.32713557E-06
   2.68799998E-02   5.96498512E-06
   2.70900000E-02   6.61564127E-06
   2.73000002E-02   7.27465067E-06
   2.75100004E-02   7.93710751E-06
   2.77200006E-02   8.59765714E-06
   2.79300008E-02   9.25051427E-06
   2.81399991E-02   9.88947704E-06
   2.83499993E-02   1.05079534E-05
   2.85599995E-02   1.10989868E-05
   2.87699997E-02   1.16552901E-05
   2.89799999E-02   1.21692883E-05
   2.91900001E-02   1.26331579E-05
   2.94000003E-02   1.30388780E-05
   2.96100006E-02   1.33782842E-05
   2.98200008E-02   1.36431281E-05
   3.00299991E-02   1.38251444E-05
   3.02399993E-02   1.39161129E-05
   3.04499995E-02   1.39079366E-05
   3.06599997E-02   1.37927127E-05
   3.08699999E-02   1.35628170E-05
   3.10800001E-02   1.32109817E-05
   3.12899984E-02   1.27303792E-05
   3.15000005E-02   1.21147123E-05
   3.17099988E-02   1.13582937E-05
   3.19200009E-02   1.04561377E-05
   3.21299993E-02   9.40403970E-06
   3.23400013E-02   8.19866909E-06
   3.25499997E-02   6.83764256E-06
   3.27600017E-02   5.31960904E-06
   3.29700001E-02   3.64432344E-06
   3.31799984E-02   1.81271628E-06
   3.33900005E-02  -1.73039780E-07
   3.35999988E-02  -2.30947080E-06
   3.38100009E-02  -4.59174908E-06
   3.40199992E-02  -7.01365025E-06
   3.42300013E-02  -9.56751865E-06
   3.44399996E-02  -1.22442361E-05
   3.46500017E-02  -1.50332116E-05
   3.48600000E-02  -1.79223698E-05
   3.50699984E-02  -2.08981619E-05
   3.52800004E-02  -2.39455785E-05
   3.54899988E-02  -2.70481778E-05
   3.57000008E-02  -3.01881191E-05
   3.59099992E-02  -3.33462413E-05
   3.61200012E-02  -3.65021006E-05
   3.63299996E-02  -3.96340620E-05
   3.65400016E-02  -4.27193881E-05
   3.67500000E-02  -4.57343413E-05
   3.69599983E-02  -4.86543031E-05
   3.71700004E-02  -5.14538988E-05
   3.73799987E-02  -5.41071386E-05
   3.75900008E-02  -5.65875562E-05
   3.77999991E-02  -5.88683761E-05
   3.80100012E-02  -6.09226918E-05
   3.82199995E-02  -6.27236222E-05
   3.84300016E-02  -6.42445011E-05
   3.86399999E-02  -6.54590913E-05
   3.88499983E-02  -6.63417304E-05
   3.90600003E-02  -6.68675857E-05
   3.92699987E-02  -6.70128211E-05
   3.94800007E-02  -6.67548156E-05
   3.96899991E-02  -6.60723381E-05
   3.99000011E-02  -6.49458088E-05
   4.01099995E-02  -6.33574164E-05
   4.03200015E-02  -6.12914009E-05
   4.05299999E-02  -5.87341674E-05
   4.07399982E-02  -5.56745108E-05
   4.09500003E-02  -5.21037873E-05
   4.11599986E-02  -4.80160525E-05
   4.13700007E-02  -4.34082431E-05
   4.15799990E-02  -3.82802937E-05
   4.17900011E-02  -3.26352711E-05
   4.19999994E-02  -2.64794890E-05
   4.22100015E-02  -1.98226007E-05
   4.24199998E-02  -1.26776695E-05
   4.26299982E-02  -5.06124297E-06
   4.28400002E-02   3.00662191E-06
   4.30499986E-02   1.15023313E-05
   4.32600006E-02   2.03987493E-05
   4.34699990E-02   2.96652215E-05
   4.36800011E-02   3.92676120E-05
   4.38899994E-02   4.91683713E-05
   4.41000015E-02   5.93265868E-05
   4.43099998E-02   6.96981369E-05
   4.45200019E-02   8.02357899E-05
   4.47300002E-02   9.08893198E-05
   4.49399985E-02   1.01605729E-04
   4.51500006E-02   1.12329377E-04
   4.53599989E-02   1.23002232E-04
   4.55700010E-02   1.33564026E-04
   4.57799993E-02   1.43952610E-04
   4.59900014E-02   1.54104055E-04
   4.61999997E-02   1.63953096E-04
   4.64100018E-02   1.73433247E-04
   4.66200002E-02   1.82477248E-04
   4.68299985E-02   1.91017287E-04
   4.70400006E-02   1.98985363E-04
   4.72499989E-02   2.06313620E-04
   4.74600010E-02   2.12934654E-04
   4.76699993E-02   2.18781919E-04
   4.78800014E-02   2.23790048E-04
   4.80899997E-02   2.27895260E-04
   4.83000018E-02   2.31035650E-04
   4.85100001E-02   2.33151601E-04
   4.87199984E-02   2.34186184E-04
   4.89300005E-02   2.34085441E-04
   4.91399989E-02   2.32798848E-04
   4.93500009E-02   2.30279606E-04
   4.95599993E-02   2.26485063E-04
   4.97700013E-02   2.21376962E-04
   4.99799997E-02   2.14921936E-04
   5.01900017E-02   2.07091696E-04
   5.04000001E-02   1.97863410E-04
   5.06099984E-02   1.87220081E-04
   5.08200005E-02   1.75150766E-04
   5.10299988E-02   1.61650882E-04
   5.12400009E-02   1.46722523E-04
   5.14499992E-02   1.30374654E-04
   5.16600013E-02   1.12623369E-04
   5.18699996E-02   9.34921190E-05
   5.20800017E-02   7.30119064E-05
   5.22900000E-02   5.12214319E-05
   5.24999984E-02   2.81672819E-05
   5.27100004E-02   3.90400601E-06
   5.29199988E-02  -2.15057680E-05
   5.31300008E-02  -4.79912633E-05
   5.33399992E-02  -7.54735302E-05
   5.35500012E-02  -1.03865445E-04
   5.37599996E-02  -1.33071764E-04
   5.39700016E-02  -1.62989163E-04
   5.41800000E-02  -1.93506363E-04
   5.43899983E-02  -2.24504329E-04
   5.46000004E-02  -2.55856343E-04
   5.48099987E-02  -2.87428324E-04
   5.50200008E-02  -3.19079147E-04
   5.52299991E-02  -3.50660936E-04
   5.54400012E-02  -3.82019352E-04
   5.56499995E-02  -4.12994123E-04
   5.58600016E-02  -4.43419529E-04
   5.60699999E-02  -4.73124848E-04
   5.62799983E-02  -5.01935021E-04
   5.64900003E-02  -5.29671204E-04
   5.66999987E-02  -5.56151499E-04
   5.69100007E-02  -5.81191736E-04
   5.71199991E-02  -6.04606117E-04
   5.73300011E-02  -6.26208319E-04
   5.75399995E-02  -6.45812077E-04
   5.77500015E-02  -6.63232349E-04
   5.79599999E-02  -6.78286189E-04
   5.81699982E-02  -6.90793793E-04
   5.83800003E-02  -7.00579665E-04
   5.85899986E-02  -7.07473606E-04
   5.88000007E-02  -7.11311935E-04
   5.90099990E-02  -7.11938657E-04
   5.92200011E-02  -7.09206448E-04
   5.94299994E-02  -7.02978286E-04
   5.96400015E-02  -6.93128328E-04
   5.98499998E-02  -6.79543242E-04
   6.00599982E-02  -6.62123377E-04
   6.02700002E-02  -6.40783983E-04
   6.04799986E-02  -6.15456607E-04
   6.06900007E-02  -5.86089911E-04
   6.08999990E-02  -5.52651123E-04
   6.11100011E-02  -5.15126798E-04
   6.13199994E-02  -4.73524095E-04
   6.15300015E-02  -4.27871593E-04
   6.17399998E-02  -3.78220226E-04
   6.19499981E-02  -3.24644061E-04
   6.21600002E-02  -2.67241005E-04
   6.23699985E-02  -2.06133293E-04
   6.25799969E-02  -1.41468161E-04
   6.27899989E-02  -7.34179848E-05
   6.30000010E-02  -2.18059245E-06
   6.32100031E-02   7.20206881E-05
   6.34199977E-02   1.48937150E-04
   6.36299998E-02   2.28294841E-04
   6.38400018E-02   3.09795141E-04
   6.40499964E-02   3.93115246E-04
   6.42599985E-02   4.77908965E-04
   6.44700006E-02   5.63807553E-04
   6.46800026E-02   6.50421076E-04
   6.48899972E-02   7.37339491E-04
   6.50999993E-02   8.24134389E-04
   6.53100014E-02   9.10360250E-04
   6.55200034E-02   9.95556707E-04
   6.57299981E-02   1.07925048E-03
   6.59400001E-02   1.16095738E-03
   6.61500022E-02   1.24018523E-03
   6.63599968E-02   1.31643564E-03
   6.65699989E-02   1.38920685E-03
   6.67800009E-02   1.45799736E-03
   6.69900030E-02   1.52230775E-03
   6.71999976E-02   1.58164406E-03
   6.74099997E-02   1.63552142E-03
   6.76200017E-02   1.68346637E-03
   6.78299963E-02   1.72502105E-03
   6.80399984E-02   1.75974530E-03
   6.82500005E-02   1.78722118E-03
   6.84600025E-02   1.80705509E-03
   6.86699972E-02   1.81888207E-03
   6.88799992E-02   1.82236789E-03
   6.90900013E-02   1.81721279E-03
   6.93000033E-02   1.80315413E-03
   6.95099980E-02   1.77996978E-03
   6.97200000E-02   1.74747990E-03
   6.99300021E-02   1.70555036E-03
   7.01399967E-02   1.65409409E-03
   7.03499988E-02   1.59307406E-03
   7.05600008E-02   1.52250426E-03
   7.07700029E-02   1.44245196E-03
   7.09799975E-02   1.35303824E-03
   7.11899996E-02   1.25443924E-03
   7.14000016E-02   1.14688696E-03
   7.16100037E-02   1.03066920E-03
   7.18199983E-02   9.06129717E-04
   7.20300004E-02   7.73667416E-04
   7.22400025E-02   6.33735792E-04
   7.24499971E-02   4.86841600E-04
   7.26599991E-02   3.33543256E-04
   7.28700012E-02   1.74448942E-04
   7.30800033E-02   1.02141148E-05
   7.32899979E-02  -1.58461131E-04
   7.34999999E-02  -3.30835202E-04
   7.37100020E-02  -5.06128359E-04
   7.39199966E-02  -6.83526567E-04
   7.41299987E-02  -8.62185669E-04
   7.43400007E-02  -1.04123552E-03
   7.45500028E-02  -1.21978484E-03
   7.47599974E-02  -1.39692635E-03
   7.49699995E-02  -1.57174130E-03
   7.51800016E-02  -1.74330513E-03
   7.53900036E-02  -1.91069313E-03
   7.55999982E-02  -2.07298552E-03
   7.58100003E-02  -2.22927332E-03
   7.60200024E-02  -2.37866421E-03
   7.62299970E-02  -2.52028834E-03
   7.64399990E-02  -2.65330332E-03
   7.66500011E-02  -2.77690054E-03
   7.68600032E-02  -2.89030978E-03
   7.70699978E-02  -2.99280533E-03
   7.72799999E-02  -3.08371033E-03
   7.74900019E-02  -3.16240196E-03
   7.76999965E-02  -3.22831632E-03
   7.79099986E-02  -3.28095211E-03
   7.81200007E-02  -3.31987394E-03
   7.83300027E-02  -3.34471697E-03
   7.85399973E-02  -3.35518946E-03
   7.87499994E-02  -3.35107418E-03
   7.89600015E-02  -3.33223282E-03
   7.91700035E-02  -3.29860533E-03
   7.93799981E-02  -3.25021171E-03
   7.95900002E-02  -3.18715302E-03
   7.98000023E-02  -3.10961064E-03
   8.00099969E-02  -3.01784556E-03
   8.02199990E-02  -2.91219749E-03
   8.04300010E-02  -2.79308343E-03
   8.06400031E-02  -2.66099488E-03
   8.08499977E-02  -2.51649483E-03
   8.10599998E-02  -2.36021471E-03
   8.12700018E-02  -2.19285069E-03
   8.14799964E-02  -2.01515830E-03
   8.16899985E-02  -1.82794896E-03
   8.19000006E-02  -1.63208391E-03
   8.21100026E-02  -1.42846839E-03
   8.23199973E-02  -1.21804629E-03
   8.25299993E-02  -1.00179331E-03
   8.27400014E-02  -7.80710543E-04
   8.29500034E-02  -5.55817969E-04
   8.31599981E-02  -3.28147173E-04
   8.33700001E-02  -9.87346430E-05
   8.35800022E-02   1.31385517E-04
   8.37899968E-02   3.61188489E-04
   8.39999989E-02   5.89665899E-04
   8.42100009E-02   8.15832755E-04
   8.44200030E-02   1.03873364E-03
   8.46299976E-02   1.25744927E-03
   8.48399997E-02   1.47110329E-03
   8.50500017E-02   1.67886750E-03
   8.52599964E-02   1.87996717E-03
   8.54699984E-02   2.07368634E-03
   8.56800005E-02   2.25937204E-03
   8.58900025E-02   2.43643834E-03
   8.60999972E-02   2.60436931E-03
   8.63099992E-02   2.76272255E-03
   8.65200013E-02   2.91113113E-03
   8.67300034E-02   3.04930471E-03
   8.69399980E-02   3.17703048E-03
   8.71500000E-02   3.29417316E-03
   8.73600021E-02   3.40067479E-03
   8.75699967E-02   3.49655282E-03
   8.77799988E-02   3.58189992E-03
   8.79900008E-02   3.65687907E-03
   8.82000029E-02   3.72172170E-03
   8.84099975E-02   3.77672398E-03
   8.86199996E-02   3.82224144E-03
   8.88300017E-02   3.85868456E-03
   8.90400037E-02   3.88651295E-03
   8.92499983E-02   3.90622974E-03
   8.94600004E-02   3.91837489E-03
   8.96700025E-02   3.92351812E-03
   8.98799971E-02   3.92225198E-03
   9.00899991E-02   3.91518464E-03
   9.03000012E-02   3.90293146E-03
   9.05100033E-02   3.88610899E-03
   9.07199979E-02   3.86532559E-03
   9.09299999E-02   3.84117477E-03
   9.11400020E-02   3.81422648E-03
   9.13499966E-02   3.78502044E-03
   9.15599987E-02   3.75405885E-03
   9.17700008E-02   3.72179947E-03
   9.19800028E-02   3.68864904E-03
   9.21899974E-02   3.65495658E-03
   9.23999995E-02   3.62100871E-03
   9.26100016E-02   3.58702405E-03
   9.28200036E-02   3.55314906E-03
   9.30299982E-02   3.51945451E-03
   9.32400003E-02   3.48593108E-03
   9.34500024E-02   3.45248869E-03
   9.36599970E-02   3.41895479E-03
   9.38699991E-02   3.38507281E-03
   9.40800011E-02   3.35050235E-03
   9.42900032E-02   3.31482175E-03
   9.44999978E-02   3.27752763E-03
   9.47099999E-02   3.23803932E-03
   9.49200019E-02   3.19570117E-03
   9.51299965E-02   3.14978836E-03
   9.53399986E-02   3.09951068E-03
   9.55500007E-02   3.04401969E-03
   9.57600027E-02   2.98241386E-03
   9.59699973E-02   2.91374722E-03
   9.61799994E-02   2.83703743E-03
   9.63900015E-02   2.75127334E-03
   9.66000035E-02   2.65542557E-03
   9.68099982E-02   2.54845410E-03
   9.70200002E-02   2.42932024E-03
   9.72300023E-02   2.29699560E-03
   9.74399969E-02   2.15047342E-03
   9.76499990E-02   1.98877812E-03
   9.78600010E-02   1.81097712E-03
   9.80700031E-02   1.61619100E-03
   9.82799977E-02   1.40360405E-03
   9.84899998E-02   1.17247435E-03
   9.87000018E-02   9.22143925E-04
   9.89099964E-02   6.52048795E-04
   9.91199985E-02   3.61727754E-04
   9.93300006E-02   5.08309604E-05
   9.95400026E-02  -2.80871609E-04
   9.97499973E-02  -6.33483462E-04
   9.99599993E-02  -1.00697496E-03
  0.100170001      -1.40117679E-03
  0.100380003      -1.81577576E-03
  0.100589998      -2.25031096E-03
  0.100800000      -2.70417100E-03
  0.101010002      -3.17659136E-03
  0.101219997      -3.66665353E-03
  0.101429999      -4.17328626E-03
  0.101640001      -4.69526555E-03
  0.101850003      -5.23121748E-03
  0.102059998      -5.77962166E-03
  0.102270000      -6.33881520E-03
  0.102480002      -6.90699834E-03
  0.102689996      -7.48224184E-03
  0.102899998      -8.06249306E-03
  0.103110000      -8.64558667E-03
  0.103320003      -9.22924839E-03
  0.103529997      -9.81111079E-03
  0.103739999      -1.03887217E-02
  0.103950001      -1.09595573E-02
  0.104160003      -1.15210284E-02
  0.104369998      -1.20705022E-02
  0.104580000      -1.26053076E-02
  0.104790002      -1.31227504E-02
  0.104999997      -1.36201289E-02
  0.105209999      -1.40947457E-02
  0.105420001      -1.45439217E-02
  0.105630003      -1.49650108E-02
  0.105839998      -1.53554128E-02
  0.106050000      -1.57125872E-02
  0.106260002      -1.60340630E-02
  0.106470004      -1.63174570E-02
  0.106679998      -1.65604819E-02
  0.106890000      -1.67609621E-02
  0.107100002      -1.69168375E-02
  0.107309997      -1.70261804E-02
  0.107519999      -1.70872044E-02
  0.107730001      -1.70982704E-02
  0.107940003      -1.70578994E-02
  0.108149998      -1.69647690E-02
  0.108360000      -1.68177355E-02
  0.108570002      -1.66158248E-02
  0.108779997      -1.63582433E-02
  0.108989999      -1.60443820E-02
  0.109200001      -1.56738162E-02
  0.109410003      -1.52463075E-02
  0.109619997      -1.47618074E-02
  0.109830000      -1.42204491E-02
  0.110040002      -1.36225559E-02
  0.110250004      -1.29686315E-02
  0.110459998      -1.22593623E-02
  0.110670000      -1.14956088E-02
  0.110880002      -1.06784049E-02
  0.111089997      -9.80895385E-03
  0.111299999      -8.88861623E-03
  0.111510001      -7.91891012E-03
  0.111720003      -6.90150447E-03
  0.111929998      -5.83820883E-03
  0.112140000      -4.73096874E-03
  0.112350002      -3.58185614E-03
  0.112559997      -2.39306525E-03
  0.112769999      -1.16690621E-03
  0.112980001       9.42078113E-05
  0.113190003       1.38776668E-03
  0.113399997       2.71116430E-03
  0.113609999       4.06171009E-03
  0.113820001       5.43663325E-03
  0.114030004       6.83309138E-03
  0.114239998       8.24817549E-03
  0.114450000       9.67891235E-03
  0.114660002       1.11222705E-02
  0.114869997       1.25751616E-02
  0.115079999       1.40344491E-02
  0.115290001       1.54969487E-02
  0.115500003       1.69594269E-02
  0.115709998       1.84186101E-02
  0.115920000       1.98711716E-02
  0.116130002       2.13137474E-02
  0.116339996       2.27429252E-02
  0.116549999       2.41552480E-02
  0.116760001       2.55472101E-02
  0.116970003       2.69152541E-02
  0.117179997       2.82557681E-02
  0.117389999       2.95650885E-02
  0.117600001       3.08394879E-02
  0.117810003       3.20751779E-02
  0.118019998       3.32682990E-02
  0.118230000       3.44149247E-02
  0.118440002       3.55110429E-02
  0.118649997       3.65525708E-02
  0.118859999       3.75353284E-02
  0.119070001       3.84550504E-02
  0.119280003       3.93073745E-02
  0.119489998       4.00878452E-02
  0.119700000       4.07919027E-02
  0.119910002       4.14148755E-02
  0.120119996       4.19519953E-02
  0.120329998       4.23983708E-02
  0.120540000       4.27490100E-02
  0.120750003       4.29987945E-02
  0.120959997       4.31425013E-02
  0.121169999       4.31747846E-02
  0.121380001       4.30902019E-02
  0.121590003       4.28831950E-02
  0.121799998       4.25480865E-02
  0.122010000       4.20791171E-02
  0.122220002       4.14704122E-02
  0.122429997       4.07160148E-02
  0.122639999       3.98098752E-02
  0.122850001       3.87458839E-02
  0.123060003       3.75178382E-02
  0.123269998       3.61194909E-02
  0.123480000       3.45445424E-02
  0.123690002       3.27866562E-02
  0.123899996       3.08394562E-02
  0.124109998       2.86965687E-02
  0.124320000       2.63516195E-02
  0.124530002       2.37982422E-02
  0.124739997       2.10301001E-02
  0.124949999       1.80409010E-02
  0.125159994       1.48244137E-02
  0.125369996       1.13744875E-02
  0.125579998       7.68505409E-03
  0.125790000       3.75015661E-03
  0.126000002      -4.36034286E-04
  0.126210004      -4.87920409E-03
  0.126420006      -9.58487857E-03
  0.126629993      -1.45584112E-02
  0.126839995      -1.98049601E-02
  0.127049997      -2.53294799E-02
  0.127260000      -3.11366953E-02
  0.127470002      -3.72310914E-02
  0.127680004      -4.36169058E-02
  0.127890006      -5.02980947E-02
  0.128099993      -5.72783388E-02
  0.128309995      -6.45610094E-02
  0.128519997      -7.21491799E-02
  0.128729999      -8.00456107E-02
  0.128940001      -8.82527083E-02
  0.129150003      -9.67725515E-02
  0.129360005     -0.105606854    
  0.129570007     -0.114756979    
  0.129779994     -0.124223918    
  0.129989997     -0.134008303    
  0.130199999     -0.144110352    
  0.130410001     -0.154529944    
  0.130620003     -0.165266514    
  0.130830005     -0.176319167    
  0.131040007     -0.187686577    
  0.131249994     -0.199367017    
  0.131459996     -0.211358413    
  0.131669998     -0.223658279    
  0.131880000     -0.236263707    
  0.132090002     -0.249171466    
  0.132300004     -0.262377918    
  0.132510006     -0.275878996    
  0.132719994     -0.289670348    
  0.132929996     -0.303747237    
  0.133139998     -0.318104506    
  0.133350000     -0.332736731    
  0.133560002     -0.347638100    
  0.133770004     -0.362802535    
  0.133980006     -0.378223568    
  0.134189993     -0.393894434    
  0.134399995     -0.409808129    
  0.134609997     -0.425957263    
  0.134819999     -0.442334235    
  0.135030001     -0.458931208    
  0.135240003     -0.475740075    
  0.135450006     -0.492752522    
  0.135659993     -0.509959936    
  0.135869995     -0.527353585    
  0.136079997     -0.544924498    
  0.136289999     -0.562663496    
  0.136500001     -0.580561399    
  0.136710003     -0.598608673    
  0.136920005     -0.616795778    
  0.137130007     -0.635113060    
  0.137339994     -0.653550684    
  0.137549996     -0.672098756    
  0.137759998     -0.690747440    
  0.137970001     -0.709486604    
  0.138180003     -0.728306293    
  0.138390005     -0.747196555    
  0.138600007     -0.766147196    
  0.138809994     -0.785148263    
  0.139019996     -0.804189742    
  0.139229998     -0.823261678    
  0.139440000     -0.842354059    
  0.139650002     -0.861457109    
  0.139860004     -0.880561113    
  0.140070006     -0.899656415    
  0.140279993     -0.918733537    
  0.140489995     -0.937782943    
  0.140699998     -0.956795454    
  0.140910000     -0.975761890    
  0.141120002     -0.994673312    
  0.141330004      -1.01352108    
  0.141540006      -1.03229654    
  0.141749993      -1.05099154    
  0.141959995      -1.06959772    
  0.142169997      -1.08810735    
  0.142379999      -1.10651278    
  0.142590001      -1.12480652    
  0.142800003      -1.14298141    
  0.143010005      -1.16103053    
  0.143220007      -1.17894733    
  0.143429995      -1.19672549    
  0.143639997      -1.21435893    
  0.143849999      -1.23184168    
  0.144060001      -1.24916852    
  0.144270003      -1.26633406    
  0.144480005      -1.28333354    
  0.144690007      -1.30016232    
  0.144899994      -1.31681621    
  0.145109996      -1.33329105    
  0.145319998      -1.34958327    
  0.145530000      -1.36568940    
  0.145740002      -1.38160658    
  0.145950004      -1.39733171    
  0.146160007      -1.41286254    
  0.146369994      -1.42819655    
  0.146579996      -1.44333184    
  0.146789998      -1.45826662    
  0.147000000      -1.47299969    
  0.147210002      -1.48752975    
  0.147420004      -1.50185597    
  0.147630006      -1.51597762    
  0.147839993      -1.52989423    
  0.148049995      -1.54360557    
  0.148259997      -1.55711162    
  0.148469999      -1.57041276    
  0.148680001      -1.58350909    
  0.148890004      -1.59640133    
  0.149100006      -1.60909033    
  0.149309993      -1.62157702    
  0.149519995      -1.63386238    
  0.149729997      -1.64594781    
  0.149939999      -1.65783465    
  0.150150001      -1.66952443    
  0.150360003      -1.68101907    
  0.150570005      -1.69232011    
  0.150780007      -1.70342958    
  0.150989994      -1.71434951    
  0.151199996      -1.72508204    
  0.151409999      -1.73562968    
  0.151620001      -1.74599445    
  0.151830003      -1.75617886    
  0.152040005      -1.76618552    
  0.152250007      -1.77601719    
  0.152459994      -1.78567648    
  0.152669996      -1.79516649    
  0.152879998      -1.80448985    
  0.153090000      -1.81364977    
  0.153300002      -1.82264924    
  0.153510004      -1.83149171    
  0.153720006      -1.84018040    
  0.153929994      -1.84871888    
  0.154139996      -1.85711062    
  0.154349998      -1.86535931    
  0.154560000      -1.87346888    
  0.154770002      -1.88144314    
  0.154980004      -1.88928628    
  0.155190006      -1.89700258    
  0.155399993      -1.90459621    
  0.155609995      -1.91207182    
  0.155819997      -1.91943419    
  0.156029999      -1.92668784    
  0.156240001      -1.93383813    
  0.156450003      -1.94089007    
  0.156660005      -1.94784904    
  0.156869993      -1.95472038    
  0.157079995      -1.96150994    
  0.157289997      -1.96822369    
  0.157499999      -1.97486758    
  0.157710001      -1.98144758    
  0.157920003      -1.98797035    
  0.158130005      -1.99444258    
  0.158340007      -2.00087070    
  0.158549994      -2.00726199    
  0.158759996      -2.01362324    
  0.158969998      -2.01996183    
  0.159180000      -2.02628469    
  0.159390002      -2.03259969    
  0.159600005      -2.03891420    
  0.159810007      -2.04523563    
  0.160019994      -2.05157232    
  0.160229996      -2.05793190    
  0.160439998      -2.06432199    
  0.160650000      -2.07075071    
  0.160860002      -2.07722616    
  0.161070004      -2.08375573    
  0.161280006      -2.09034801    
  0.161489993      -2.09701014    
  0.161699995      -2.10375047    
  0.161909997      -2.11057639    
  0.162120000      -2.11749530    
  0.162330002      -2.12451482    
  0.162540004      -2.13164186    
  0.162750006      -2.13888383    
  0.162959993      -2.14624763    
  0.163169995      -2.15373945    
  0.163379997      -2.16136575    
  0.163589999      -2.16913271    
  0.163800001      -2.17704606    
  0.164010003      -2.18511081    
  0.164220005      -2.19333220    
  0.164430007      -2.20171475    
  0.164639995      -2.21026278    
  0.164849997      -2.21898031    
  0.165059999      -2.22786999    
  0.165270001      -2.23693538    
  0.165480003      -2.24617863    
  0.165690005      -2.25560188    
  0.165900007      -2.26520681    
  0.166109994      -2.27499413    
  0.166319996      -2.28496432    
  0.166529998      -2.29511786    
  0.166740000      -2.30545354    
  0.166950002      -2.31597137    
  0.167160004      -2.32666922    
  0.167370006      -2.33754563    
  0.167579994      -2.34859753    
  0.167789996      -2.35982251    
  0.167999998      -2.37121701    
  0.168210000      -2.38277698    
  0.168420002      -2.39449883    
  0.168630004      -2.40637732    
  0.168840006      -2.41840792    
  0.169049993      -2.43058491    
  0.169259995      -2.44290257    
  0.169469997      -2.45535493    
  0.169679999      -2.46793532    
  0.169890001      -2.48063755    
  0.170100003      -2.49345446    
  0.170310006      -2.50637913    
  0.170519993      -2.51940417    
  0.170729995      -2.53252244    
  0.170939997      -2.54572606    
  0.171149999      -2.55900717    
  0.171360001      -2.57235861    
  0.171570003      -2.58577228    
  0.171780005      -2.59924054    
  0.171990007      -2.61275578    
  0.172199994      -2.62631059    
  0.172409996      -2.63989711    
  0.172619998      -2.65350819    
  0.172830001      -2.66713643    
  0.173040003      -2.68077517    
  0.173250005      -2.69441724    
  0.173460007      -2.70805573    
  0.173669994      -2.72168446    
  0.173879996      -2.73529720    
  0.174089998      -2.74888825    
  0.174300000      -2.76245213    
  0.174510002      -2.77598310    
  0.174720004      -2.78947639    
  0.174930006      -2.80292749    
  0.175139993      -2.81633210    
  0.175349995      -2.82968569    
  0.175559998      -2.84298491    
  0.175770000      -2.85622621    
  0.175980002      -2.86940646    
  0.176190004      -2.88252282    
  0.176400006      -2.89557242    
  0.176609993      -2.90855336    
  0.176819995      -2.92146397    
  0.177029997      -2.93430281    
  0.177239999      -2.94706821    
  0.177450001      -2.95975900    
  0.177660003      -2.97237444    
  0.177870005      -2.98491359    
  0.178080007      -2.99737620    
  0.178289995      -3.00976133    
  0.178499997      -3.02206874    
  0.178709999      -3.03429842    
  0.178920001      -3.04645038    
  0.179130003      -3.05852461    
  0.179340005      -3.07052088    
  0.179550007      -3.08243942    
  0.179759994      -3.09428024    