   0.00000000       0.00000000    
   2.09999998E-04   0.00000000    
   4.19999997E-04   0.00000000    
   6.30000024E-04   0.00000000    
   8.39999993E-04  -2.39181956E-20
   1.04999996E-03  -2.49416332E-19
   1.26000005E-03  -1.40227638E-18
   1.47000002E-03  -5.66658714E-18
   1.67999999E-03  -1.84658344E-17
   1.88999996E-03  -5.15796677E-17
   2.09999993E-03  -1.28169161E-16
   2.30999989E-03  -2.90382747E-16
   2.52000010E-03  -6.10308467E-16
   2.73000007E-03  -1.20509897E-15
   2.94000003E-03  -2.25712851E-15
   3.15000000E-03  -4.04005366E-15
   3.35999997E-03  -6.95160999E-15
   3.56999994E-03  -1.15538733E-14
   3.77999991E-03  -1.86215992E-14
   3.99000011E-03  -2.91990519E-14
   4.19999985E-03  -4.46652874E-14
   4.41000005E-03  -6.68080432E-14
   4.61999979E-03  -9.79054484E-14
   4.82999999E-03  -1.40814294E-13
   5.04000019E-03  -1.99063652E-13
   5.24999993E-03  -2.76952018E-13
   5.46000013E-03  -3.79644531E-13
   5.66999987E-03  -5.13267217E-13
   5.88000007E-03  -6.84994758E-13
   6.08999981E-03  -9.03126369E-13
   6.30000001E-03  -1.17714421E-12
   6.51000021E-03  -1.51774990E-12
   6.71999995E-03  -1.93686972E-12
   6.93000015E-03  -2.44762587E-12
   7.13999989E-03  -3.06425892E-12
   7.35000009E-03  -3.80199865E-12
   7.55999982E-03  -4.67687737E-12
   7.77000003E-03  -5.70547646E-12
   7.98000023E-03  -6.90458758E-12
   8.19000043E-03  -8.29079774E-12
   8.39999970E-03  -9.87997531E-12
   8.60999990E-03  -1.16866560E-11
   8.82000010E-03  -1.37233471E-11
   9.03000031E-03  -1.59996912E-11
   9.23999958E-03  -1.85215229E-11
   9.44999978E-03  -2.12898397E-11
   9.65999998E-03  -2.42996664E-11
   9.87000018E-03  -2.75387907E-11
   1.00800004E-02  -3.09863836E-11
   1.02899997E-02  -3.46115948E-11
   1.04999999E-02  -3.83720555E-11
   1.07100001E-02  -4.22122753E-11
   1.09200003E-02  -4.60621194E-11
   1.11300005E-02  -4.98351811E-11
   1.13399997E-02  -5.34271238E-11
   1.15499999E-02  -5.67141958E-11
   1.17600001E-02  -5.95519120E-11
   1.19700003E-02  -6.17736903E-11
   1.21799996E-02  -6.31897312E-11
   1.23899998E-02  -6.35861711E-11
   1.26000000E-02  -6.27243951E-11
   1.28100002E-02  -6.03408434E-11
   1.30200004E-02  -5.61472466E-11
   1.32299997E-02  -4.98309970E-11
   1.34399999E-02  -4.10563111E-11
   1.36500001E-02  -2.94659956E-11
   1.38600003E-02  -1.46834715E-11
   1.40699996E-02   3.68419358E-12
   1.42799998E-02   2.60424928E-11
   1.44900000E-02   5.28053330E-11
   1.47000002E-02   8.43896758E-11
   1.49100004E-02   1.21209556E-10
   1.51199996E-02   1.63669425E-10
   1.53299998E-02   2.12156154E-10
   1.55400001E-02   2.67030537E-10
   1.57500003E-02   3.28618133E-10
   1.59600005E-02   3.97199051E-10
   1.61700007E-02   4.72997086E-10
   1.63800009E-02   5.56167890E-10
   1.65899992E-02   6.46786791E-10
   1.67999994E-02   7.44836248E-10
   1.70099996E-02   8.50192805E-10
   1.72199998E-02   9.62613766E-10
   1.74300000E-02   1.08172404E-09
   1.76400002E-02   1.20700261E-09
   1.78500004E-02   1.33776901E-09
   1.80600006E-02   1.47317203E-09
   1.82700008E-02   1.61217761E-09
   1.84799992E-02   1.75355741E-09
   1.86899994E-02   1.89587990E-09
   1.88999996E-02   2.03750261E-09
   1.91099998E-02   2.17656582E-09
   1.93200000E-02   2.31098829E-09
   1.95300002E-02   2.43846565E-09
   1.97400004E-02   2.55647148E-09
   1.99500006E-02   2.66226108E-09
   2.01600008E-02   2.75287881E-09
   2.03699991E-02   2.82516854E-09
   2.05799993E-02   2.87578783E-09
   2.07899995E-02   2.90122637E-09
   2.09999997E-02   2.89782798E-09
   2.12099999E-02   2.86181656E-09
   2.14200001E-02   2.78932788E-09
   2.16300003E-02   2.67644351E-09
   2.18400005E-02   2.51923193E-09
   2.20500007E-02   2.31379160E-09
   2.22600009E-02   2.05629869E-09
   2.24699993E-02   1.74305881E-09
   2.26799995E-02   1.37056533E-09
   2.28899997E-02   9.35559408E-10
   2.30999999E-02   4.35088660E-10
   2.33100001E-02  -1.33423939E-10
   2.35200003E-02  -7.72112319E-10
   2.37300005E-02  -1.48259893E-09
   2.39400007E-02  -2.26592500E-09
   2.41500009E-02  -3.12247450E-09
   2.43599992E-02  -4.05190637E-09
   2.45699994E-02  -5.05308995E-09
   2.47799996E-02  -6.12403106E-09
   2.49899998E-02  -7.26181026E-09
   2.52000000E-02  -8.46252846E-09
   2.54100002E-02  -9.72124337E-09
   2.56200004E-02  -1.10319283E-08
   2.58300006E-02  -1.23874262E-08
   2.60400008E-02  -1.37794185E-08
   2.62499992E-02  -1.51984025E-08
   2.64599994E-02  -1.66336722E-08
   2.66699996E-02  -1.80733313E-08
   2.68799998E-02  -1.95042844E-08
   2.70900000E-02  -2.09122692E-08
   2.73000002E-02  -2.22818972E-08
   2.75100004E-02  -2.35967104E-08
   2.77200006E-02  -2.48392364E-08
   2.79300008E-02  -2.59910671E-08
   2.81399991E-02  -2.70329767E-08
   2.83499993E-02  -2.79450276E-08
   2.85599995E-02  -2.87066904E-08
   2.87699997E-02  -2.92970146E-08
   2.89799999E-02  -2.96947782E-08
   2.91900001E-02  -2.98786595E-08
   2.94000003E-02  -2.98274436E-08
   2.96100006E-02  -2.95202280E-08
   2.98200008E-02  -2.89366398E-08
   3.00299991E-02  -2.80570553E-08
   3.02399993E-02  -2.68628657E-08
   3.04499995E-02  -2.53367052E-08
   3.06599997E-02  -2.34627162E-08
   3.08699999E-02  -2.12268088E-08
   3.10800001E-02  -1.86169160E-08
   3.12899984E-02  -1.56232591E-08
   3.15000005E-02  -1.22386066E-08
   3.17099988E-02  -8.45853609E-09
   3.19200009E-02  -4.28166214E-09
   3.21299993E-02   2.90120455E-10
   3.23400013E-02   5.25141841E-09
   3.25499997E-02   1.05931397E-08
   3.27600017E-02   1.63023053E-08
   3.29700001E-02   2.23618919E-08
   3.31799984E-02   2.87507049E-08
   3.33900005E-02   3.54432608E-08
   3.35999988E-02   4.24097308E-08
   3.38100009E-02   4.96158563E-08
   3.40199992E-02   5.70230014E-08
   3.42300013E-02   6.45881428E-08
   3.44399996E-02   7.22639655E-08
   3.46500017E-02   7.99989621E-08
   3.48600000E-02   8.77375967E-08
   3.50699984E-02   9.54205248E-08
   3.52800004E-02   1.02984778E-07
   3.54899988E-02   1.10364120E-07
   3.57000008E-02   1.17489357E-07
   3.59099992E-02   1.24288718E-07
   3.61200012E-02   1.30688264E-07
   3.63299996E-02   1.36612357E-07
   3.65400016E-02   1.41984160E-07
   3.67500000E-02   1.46726194E-07
   3.69599983E-02   1.50760897E-07
   3.71700004E-02   1.54011246E-07
   3.73799987E-02   1.56401356E-07
   3.75900008E-02   1.57857215E-07
   3.77999991E-02   1.58307316E-07
   3.80100012E-02   1.57683345E-07
   3.82199995E-02   1.55920887E-07
   3.84300016E-02   1.52960169E-07
   3.86399999E-02   1.48746764E-07
   3.88499983E-02   1.43232270E-07
   3.90600003E-02   1.36375050E-07
   3.92699987E-02   1.28140883E-07
   3.94800007E-02   1.18503650E-07
   3.96899991E-02   1.07445892E-07
   3.99000011E-02   9.49594323E-08
   4.01099995E-02   8.10459042E-08
   4.03200015E-02   6.57173018E-08
   4.05299999E-02   4.89963874E-08
   4.07399982E-02   3.09170183E-08
   4.09500003E-02   1.15245440E-08
   4.11599986E-02  -9.12400111E-09
   4.13700007E-02  -3.09597610E-08
   4.15799990E-02  -5.39018394E-08
   4.17900011E-02  -7.78573934E-08
   4.19999994E-02  -1.02721778E-07
   4.22100015E-02  -1.28378588E-07
   4.24199998E-02  -1.54699947E-07
   4.26299982E-02  -1.81546881E-07
   4.28400002E-02  -2.08769819E-07
   4.30499986E-02  -2.36209146E-07
   4.32600006E-02  -2.63695739E-07
   4.34699990E-02  -2.91051805E-07
   4.36800011E-02  -3.18091679E-07
   4.38899994E-02  -3.44622691E-07
   4.41000015E-02  -3.70446259E-07
   4.43099998E-02  -3.95358882E-07
   4.45200019E-02  -4.19153366E-07
   4.47300002E-02  -4.41619960E-07
   4.49399985E-02  -4.62547831E-07
   4.51500006E-02  -4.81726261E-07
   4.53599989E-02  -4.98946122E-07
   4.55700010E-02  -5.14001442E-07
   4.57799993E-02  -5.26690542E-07
   4.59900014E-02  -5.36818050E-07
   4.61999997E-02  -5.44195984E-07
   4.64100018E-02  -5.48645801E-07
   4.66200002E-02  -5.49999413E-07
   4.68299985E-02  -5.48101070E-07
   4.70400006E-02  -5.42808664E-07
   4.72499989E-02  -5.33995546E-07
   4.74600010E-02  -5.21551499E-07
   4.76699993E-02  -5.05384492E-07
   4.78800014E-02  -4.85422163E-07
   4.80899997E-02  -4.61612473E-07
   4.83000018E-02  -4.33925379E-07
   4.85100001E-02  -4.02353749E-07
   4.87199984E-02  -3.66914293E-07
   4.89300005E-02  -3.27648593E-07
   4.91399989E-02  -2.84623724E-07
   4.93500009E-02  -2.37932753E-07
   4.95599993E-02  -1.87695463E-07
   4.97700013E-02  -1.34058624E-07
   4.99799997E-02  -7.71959634E-08
   5.01900017E-02  -1.73083148E-08
   5.04000001E-02   4.53763818E-08
   5.06099984E-02   1.10603878E-07
   5.08200005E-02   1.78093586E-07
   5.10299988E-02   2.47539305E-07
   5.12400009E-02   3.18610461E-07
   5.14499992E-02   3.90952721E-07
   5.16600013E-02   4.64189554E-07
   5.18699996E-02   5.37923256E-07
   5.20800017E-02   6.11736652E-07
   5.22900000E-02   6.85195346E-07
   5.24999984E-02   7.57848909E-07
   5.27100004E-02   8.29233329E-07
   5.29199988E-02   8.98873111E-07
   5.31300008E-02   9.66283665E-07
   5.33399992E-02   1.03097420E-06
   5.35500012E-02   1.09244991E-06
   5.37599996E-02   1.15021578E-06
   5.39700016E-02   1.20377808E-06
   5.41800000E-02   1.25264830E-06
   5.43899983E-02   1.29634600E-06
   5.46000004E-02   1.33440267E-06
   5.48099987E-02   1.36636424E-06
   5.50200008E-02   1.39179429E-06
   5.52299991E-02   1.41027851E-06
   5.54400012E-02   1.42142676E-06
   5.56499995E-02   1.42487727E-06
   5.58600016E-02   1.42029967E-06
   5.60699999E-02   1.40739792E-06
   5.62799983E-02   1.38591440E-06
   5.64900003E-02   1.35563232E-06
   5.66999987E-02   1.31637910E-06
   5.69100007E-02   1.26802900E-06
   5.71199991E-02   1.21050607E-06
   5.73300011E-02   1.14378656E-06
   5.75399995E-02   1.06790117E-06
   5.77500015E-02   9.82937308E-07
   5.79599999E-02   8.89040848E-07
   5.81699982E-02   7.86417843E-07
   5.83800003E-02   6.75335514E-07
   5.85899986E-02   5.56123268E-07
   5.88000007E-02   4.29173696E-07
   5.90099990E-02   2.94942652E-07
   5.92200011E-02   1.53949202E-07
   5.94299994E-02   6.77478784E-09
   5.96400015E-02  -1.45937136E-07
   5.98499998E-02  -3.03482267E-07
   6.00599982E-02  -4.65098225E-07
   6.02700002E-02  -6.29965996E-07
   6.04799986E-02  -7.97212351E-07
   6.06900007E-02  -9.65913614E-07
   6.08999990E-02  -1.13509839E-06
   6.11100011E-02  -1.30375167E-06
   6.13199994E-02  -1.47082062E-06
   6.15300015E-02  -1.63521690E-06
   6.17399998E-02  -1.79582435E-06
   6.19499981E-02  -1.95150392E-06
   6.21600002E-02  -2.10109897E-06
   6.23699985E-02  -2.24344285E-06
   6.25799969E-02  -2.37736481E-06
   6.27899989E-02  -2.50169842E-06
   6.30000010E-02  -2.61528839E-06
   6.32100031E-02  -2.71699764E-06
   6.34199977E-02  -2.80571567E-06
   6.36299998E-02  -2.88036836E-06
   6.38400018E-02  -2.93992434E-06
   6.40499964E-02  -2.98340365E-06
   6.42599985E-02  -3.00988586E-06
   6.44700006E-02  -3.01852037E-06
   6.46800026E-02  -3.00853299E-06
   6.48899972E-02  -2.97923475E-06
   6.50999993E-02  -2.93003040E-06
   6.53100014E-02  -2.86042609E-06
   6.55200034E-02  -2.77003664E-06
   6.57299981E-02  -2.65859239E-06
   6.59400001E-02  -2.52594600E-06
   6.61500022E-02  -2.37207973E-06
   6.63599968E-02  -2.19710932E-06
   6.65699989E-02  -2.00129148E-06
   6.67800009E-02  -1.78502580E-06
   6.69900030E-02  -1.54886015E-06
   6.71999976E-02  -1.29349280E-06
   6.74099997E-02  -1.01977389E-06
   6.76200017E-02  -7.28708585E-07
   6.78299963E-02  -4.21454843E-07
   6.80399984E-02  -9.93249358E-08
   6.82500005E-02   2.36219009E-07
   6.84600025E-02   5.83567555E-07
   6.86699972E-02   9.40964526E-07
   6.88799992E-02   1.30651574E-06
   6.90900013E-02   1.67819462E-06
   6.93000033E-02   2.05384777E-06
   6.95099980E-02   2.43120485E-06
   6.97200000E-02   2.80788913E-06
   6.99300021E-02   3.18142520E-06
   7.01399967E-02   3.54925282E-06
   7.03499988E-02   3.90873947E-06
   7.05600008E-02   4.25719281E-06
   7.07700029E-02   4.59187595E-06
   7.09799975E-02   4.91002447E-06
   7.11899996E-02   5.20886033E-06
   7.14000016E-02   5.48561047E-06
   7.16100037E-02   5.73752322E-06
   7.18199983E-02   5.96188693E-06
   7.20300004E-02   6.15604949E-06
   7.22400025E-02   6.31743887E-06
   7.24499971E-02   6.44357806E-06
   7.26599991E-02   6.53210736E-06
   7.28700012E-02   6.58080262E-06
   7.30800033E-02   6.58759609E-06
   7.32899979E-02   6.55059557E-06
   7.34999999E-02   6.46810167E-06
   7.37100020E-02   6.33862646E-06
   7.39199966E-02   6.16091120E-06
   7.41299987E-02   5.93394225E-06
   7.43400007E-02   5.65696973E-06
   7.45500028E-02   5.32951708E-06
   7.47599974E-02   4.95139557E-06
   7.49699995E-02   4.52272207E-06
   7.51800016E-02   4.04392813E-06
   7.53900036E-02   3.51576500E-06
   7.55999982E-02   2.93931134E-06
   7.58100003E-02   2.31598256E-06
   7.60200024E-02   1.64753646E-06
   7.62299970E-02   9.36068773E-07
   7.64399990E-02   1.84019058E-07
   7.66500011E-02  -6.05833861E-07
   7.68600032E-02  -1.43037789E-06
   7.70699978E-02  -2.28617000E-06
   7.72799999E-02  -3.16944920E-06
   7.74900019E-02  -4.07614516E-06
   7.76999965E-02  -5.00188798E-06
   7.79099986E-02  -5.94202766E-06
   7.81200007E-02  -6.89165017E-06
   7.83300027E-02  -7.84559415E-06
   7.85399973E-02  -8.79847539E-06
   7.87499994E-02  -9.74470822E-06
   7.89600015E-02  -1.06785346E-05
   7.91700035E-02  -1.15940466E-05
   7.93799981E-02  -1.24852177E-05
   7.95900002E-02  -1.33459334E-05
   7.98000023E-02  -1.41700111E-05
   8.00099969E-02  -1.49512425E-05
   8.02199990E-02  -1.56834340E-05
   8.04300010E-02  -1.63604327E-05
   8.06400031E-02  -1.69761533E-05
   8.08499977E-02  -1.75246223E-05
   8.10599998E-02  -1.80000206E-05
   8.12700018E-02  -1.83967077E-05
   8.14799964E-02  -1.87092646E-05
   8.16899985E-02  -1.89325183E-05
   8.19000006E-02  -1.90615938E-05
   8.21100026E-02  -1.90919291E-05
   8.23199973E-02  -1.90193132E-05
   8.25299993E-02  -1.88399281E-05
   8.27400014E-02  -1.85503577E-05
   8.29500034E-02  -1.81476389E-05
   8.31599981E-02  -1.76292724E-05
   8.33700001E-02  -1.69932591E-05
   8.35800022E-02  -1.62381020E-05
   8.37899968E-02  -1.53628462E-05
   8.39999989E-02  -1.43670832E-05
   8.42100009E-02  -1.32509749E-05
   8.44200030E-02  -1.20152581E-05
   8.46299976E-02  -1.06612633E-05
   8.48399997E-02  -9.19090871E-06
   8.50500017E-02  -7.60670673E-06
   8.52599964E-02  -5.91177331E-06
   8.54699984E-02  -4.10981465E-06
   8.56800005E-02  -2.20512720E-06
   8.58900025E-02  -2.02587600E-07
   8.60999972E-02   1.89236289E-06
   8.63099992E-02   4.07372545E-06
   8.65200013E-02   6.33496575E-06
   8.67300034E-02   8.66902974E-06
   8.69399980E-02   1.10683732E-05
   8.71500000E-02   1.35249757E-05
   8.73600021E-02   1.60303753E-05
   8.75699967E-02   1.85756944E-05
   8.77799988E-02   2.11516708E-05
   8.79900008E-02   2.37486929E-05
   8.82000029E-02   2.63568218E-05
   8.84099975E-02   2.89658437E-05
   8.86199996E-02   3.15652942E-05
   8.88300017E-02   3.41444902E-05
   8.90400037E-02   3.66925815E-05
   8.92499983E-02   3.91985886E-05
   8.94600004E-02   4.16514158E-05
   8.96700025E-02   4.40399235E-05
   8.98799971E-02   4.63529395E-05
   9.00899991E-02   4.85792989E-05
   9.03000012E-02   5.07078912E-05
   9.05100033E-02   5.27276825E-05
   9.07199979E-02   5.46277552E-05
   9.09299999E-02   5.63973445E-05
   9.11400020E-02   5.80258638E-05
   9.13499966E-02   5.95029487E-05
   9.15599987E-02   6.08184637E-05
   9.17700008E-02   6.19625280E-05
   9.19800028E-02   6.29255737E-05
   9.21899974E-02   6.36983459E-05
   9.23999995E-02   6.42718878E-05
   9.26100016E-02   6.46376429E-05
   9.28200036E-02   6.47874258E-05
   9.30299982E-02   6.47134293E-05
   9.32400003E-02   6.44082247E-05
   9.34500024E-02   6.38648489E-05
   9.36599970E-02   6.30767972E-05
   9.38699991E-02   6.20379724E-05
   9.40800011E-02   6.07427464E-05
   9.42900032E-02   5.91859898E-05
   9.44999978E-02   5.73630350E-05
   9.47099999E-02   5.52697129E-05
   9.49200019E-02   5.29023600E-05
   9.51299965E-02   5.02578332E-05
   9.53399986E-02   4.73335276E-05
   9.55500007E-02   4.41273769E-05
   9.57600027E-02   4.06379186E-05
   9.59699973E-02   3.68642177E-05
   9.61799994E-02   3.28059468E-05
   9.63900015E-02   2.84634061E-05
   9.66000035E-02   2.38375269E-05
   9.68099982E-02   1.89298844E-05
   9.70200002E-02   1.37427569E-05
   9.72300023E-02   8.27915028E-06
   9.74399969E-02   2.54280462E-06
   9.76499990E-02  -3.46178035E-06
   9.78600010E-02  -9.72926864E-06
   9.80700031E-02  -1.62534943E-05
   9.82799977E-02  -2.30274254E-05
   9.84899998E-02  -3.00430511E-05
   9.87000018E-02  -3.72914074E-05
   9.89099964E-02  -4.47625025E-05
   9.91199985E-02  -5.24452880E-05
   9.93300006E-02  -6.03276239E-05
   9.95400026E-02  -6.83961625E-05
   9.97499973E-02  -7.66363955E-05
   9.99599993E-02  -8.50325305E-05
  0.100170001      -9.35675052E-05
  0.100380003      -1.02222897E-04
  0.100589998      -1.10978908E-04
  0.100800000      -1.19814285E-04
  0.101010002      -1.28706364E-04
  0.101219997      -1.37630937E-04
  0.101429999      -1.46562321E-04
  0.101640001      -1.55473273E-04
  0.101850003      -1.64334997E-04
  0.102059998      -1.73117151E-04
  0.102270000      -1.81787807E-04
  0.102480002      -1.90313498E-04
  0.102689996      -1.98659254E-04
  0.102899998      -2.06788580E-04
  0.103110000      -2.14663509E-04
  0.103320003      -2.22244664E-04
  0.103529997      -2.29491328E-04
  0.103739999      -2.36361506E-04
  0.103950001      -2.42812006E-04
  0.104160003      -2.48798606E-04
  0.104369998      -2.54276034E-04
  0.104580000      -2.59198248E-04
  0.104790002      -2.63518479E-04
  0.104999997      -2.67189404E-04
  0.105209999      -2.70163291E-04
  0.105420001      -2.72392324E-04
  0.105630003      -2.73828598E-04
  0.105839998      -2.74424441E-04
  0.106050000      -2.74132646E-04
  0.106260002      -2.72906676E-04
  0.106470004      -2.70700839E-04
  0.106679998      -2.67470663E-04
  0.106890000      -2.63173104E-04
  0.107100002      -2.57766864E-04
  0.107309997      -2.51212536E-04
  0.107519999      -2.43472998E-04
  0.107730001      -2.34513718E-04
  0.107940003      -2.24303018E-04
  0.108149998      -2.12812360E-04
  0.108360000      -2.00016555E-04
  0.108570002      -1.85894183E-04
  0.108779997      -1.70427826E-04
  0.108989999      -1.53604400E-04
  0.109200001      -1.35415350E-04
  0.109410003      -1.15856928E-04
  0.109619997      -9.49304304E-05
  0.109830000      -7.26425933E-05
  0.110040002      -4.90056555E-05
  0.110250004      -2.40375866E-05
  0.110459998       2.23760799E-06
  0.110670000       2.97899041E-05
  0.110880002       5.85828493E-05
  0.111089997       8.85735790E-05
  0.111299999       1.19712786E-04
  0.111510001       1.51944449E-04
  0.111720003       1.85205892E-04
  0.111929998       2.19427733E-04
  0.112140000       2.54533865E-04
  0.112350002       2.90441589E-04
  0.112559997       3.27061454E-04
  0.112769999       3.64297419E-04
  0.112980001       4.02047095E-04
  0.113190003       4.40201809E-04
  0.113399997       4.78646776E-04
  0.113609999       5.17261215E-04
  0.113820001       5.55918727E-04
  0.114030004       5.94487530E-04
  0.114239998       6.32830604E-04
  0.114450000       6.70806330E-04
  0.114660002       7.08268490E-04
  0.114869997       7.45066674E-04
  0.115079999       7.81046983E-04
  0.115290001       8.16052023E-04
  0.115500003       8.49921897E-04
  0.115709998       8.82494089E-04
  0.115920000       9.13604163E-04
  0.116130002       9.43086343E-04
  0.116339996       9.70773923E-04
  0.116549999       9.96499904E-04
  0.116760001       1.02009717E-03
  0.116970003       1.04139943E-03
  0.117179997       1.06024160E-03
  0.117389999       1.07646012E-03
  0.117600001       1.08989398E-03
  0.117810003       1.10038486E-03
  0.118019998       1.10777759E-03
  0.118230000       1.11192127E-03
  0.118440002       1.11266878E-03
  0.118649997       1.10987842E-03
  0.118859999       1.10341352E-03
  0.119070001       1.09314371E-03
  0.119280003       1.07894442E-03
  0.119489998       1.06069830E-03
  0.119700000       1.03829510E-03
  0.119910002       1.01163203E-03
  0.120119996       9.80614568E-04
  0.120329998       9.45156557E-04
  0.120540000       9.05180699E-04
  0.120750003       8.60618718E-04
  0.120959997       8.11411825E-04
  0.121169999       7.57511007E-04
  0.121380001       6.98877266E-04
  0.121590003       6.35481672E-04
  0.121799998       5.67306066E-04
  0.122010000       4.94342647E-04
  0.122220002       4.16594790E-04
  0.122429997       3.34076700E-04
  0.122639999       2.46813725E-04
  0.122850001       1.54842652E-04
  0.123060003       5.82114444E-05
  0.123269998      -4.30204091E-05
  0.123480000      -1.48781895E-04
  0.123690002      -2.58990476E-04
  0.123899996      -3.73552000E-04
  0.124109998      -4.92360559E-04
  0.124320000      -6.15298864E-04
  0.124530002      -7.42237782E-04
  0.124739997      -8.73036857E-04
  0.124949999      -1.00754399E-03
  0.125159994      -1.14559580E-03
  0.125369996      -1.28701725E-03
  0.125579998      -1.43162208E-03
  0.125790000      -1.57921272E-03
  0.126000002      -1.72958069E-03
  0.126210004      -1.88250619E-03
  0.126420006      -2.03775847E-03
  0.126629993      -2.19509588E-03
  0.126839995      -2.35426682E-03
  0.127049997      -2.51500821E-03
  0.127260000      -2.67704716E-03
  0.127470002      -2.84010055E-03
  0.127680004      -3.00387549E-03
  0.127890006      -3.16806859E-03
  0.128099993      -3.33236787E-03
  0.128309995      -3.49645084E-03
  0.128519997      -3.65998666E-03
  0.128729999      -3.82263563E-03
  0.128940001      -3.98404989E-03
  0.129150003      -4.14387230E-03
  0.129360005      -4.30173846E-03
  0.129570007      -4.45727631E-03
  0.129779994      -4.61010728E-03
  0.129989997      -4.75984486E-03
  0.130199999      -4.90609743E-03
  0.130410001      -5.04846685E-03
  0.130620003      -5.18654939E-03
  0.130830005      -5.31993713E-03
  0.131040007      -5.44821844E-03
  0.131249994      -5.57097653E-03
  0.131459996      -5.68779279E-03
  0.131669998      -5.79824578E-03
  0.131880000      -5.90191223E-03
  0.132090002      -5.99836884E-03
  0.132300004      -6.08719140E-03
  0.132510006      -6.16795709E-03
  0.132719994      -6.24024356E-03
  0.132929996      -6.30363170E-03
  0.133139998      -6.35770522E-03
  0.133350000      -6.40205294E-03
  0.133560002      -6.43626787E-03
  0.133770004      -6.45994907E-03
  0.133980006      -6.47270354E-03
  0.134189993      -6.47414709E-03
  0.134399995      -6.46390393E-03
  0.134609997      -6.44160807E-03
  0.134819999      -6.40690653E-03
  0.135030001      -6.35945750E-03
  0.135240003      -6.29893411E-03
  0.135450006      -6.22502342E-03
  0.135659993      -6.13742927E-03
  0.135869995      -6.03587180E-03
  0.136079997      -5.92008978E-03
  0.136289999      -5.78984153E-03
  0.136500001      -5.64490538E-03
  0.136710003      -5.48508111E-03
  0.136920005      -5.31019224E-03
  0.137130007      -5.12008322E-03
  0.137339994      -4.91462601E-03
  0.137549996      -4.69371676E-03
  0.137759998      -4.45727864E-03
  0.137970001      -4.20526136E-03
  0.138180003      -3.93764349E-03
  0.138390005      -3.65443318E-03
  0.138600007      -3.35566746E-03
  0.138809994      -3.04141431E-03
  0.139019996      -2.71177385E-03
  0.139229998      -2.36687693E-03
  0.139440000      -2.00688676E-03
  0.139650002      -1.63199939E-03
  0.139860004      -1.24244450E-03
  0.140070006      -8.38485197E-04
  0.140279993      -4.20418655E-04
  0.140489995       1.14240420E-05
  0.140699998       4.56678012E-04
  0.140910000       9.14943637E-04
  0.141120002       1.38578739E-03
  0.141330004       1.86874147E-03
  0.141540006       2.36330391E-03
  0.141749993       2.86893919E-03
  0.141959995       3.38507886E-03
  0.142169997       3.91112035E-03
  0.142379999       4.44642967E-03
  0.142590001       4.99033974E-03
  0.142800003       5.54215210E-03
  0.143010005       6.10113796E-03
  0.143220007       6.66653784E-03
  0.143429995       7.23756384E-03
  0.143639997       7.81339966E-03
  0.143849999       8.39319918E-03
  0.144060001       8.97609256E-03
  0.144270003       9.56118293E-03
  0.144480005       1.01475501E-02
  0.144690007       1.07342489E-02
  0.144899994       1.13203153E-02
  0.145109996       1.19047631E-02
  0.145319998       1.24865836E-02
  0.145530000       1.30647561E-02
  0.145740002       1.36382394E-02
  0.145950004       1.42059792E-02
  0.146160007       1.47669055E-02
  0.146369994       1.53199416E-02
  0.146579996       1.58639960E-02
  0.146789998       1.63979698E-02
  0.147000000       1.69207603E-02
  0.147210002       1.74312592E-02
  0.147420004       1.79283507E-02
  0.147630006       1.84109248E-02
  0.147839993       1.88778695E-02
  0.148049995       1.93280727E-02
  0.148259997       1.97604317E-02
  0.148469999       2.01738477E-02
  0.148680001       2.05672365E-02
  0.148890004       2.09395140E-02
  0.149100006       2.12896224E-02
  0.149309993       2.16165129E-02
  0.149519995       2.19191499E-02
  0.149729997       2.21965276E-02
  0.149939999       2.24476531E-02
  0.150150001       2.26715654E-02
  0.150360003       2.28673257E-02
  0.150570005       2.30340231E-02
  0.150780007       2.31707804E-02
  0.150989994       2.32767500E-02
  0.151199996       2.33511291E-02
  0.151409999       2.33931411E-02
  0.151620001       2.34020576E-02
  0.151830003       2.33771894E-02
  0.152040005       2.33178884E-02
  0.152250007       2.32235566E-02
  0.152459994       2.30936464E-02
  0.152669996       2.29276586E-02
  0.152879998       2.27251463E-02
  0.153090000       2.24857181E-02
  0.153300002       2.22090371E-02
  0.153510004       2.18948275E-02
  0.153720006       2.15428695E-02
  0.153929994       2.11530067E-02
  0.154139996       2.07251497E-02
  0.154349998       2.02592649E-02
  0.154560000       1.97553951E-02
  0.154770002       1.92136373E-02
  0.154980004       1.86341684E-02
  0.155190006       1.80172268E-02
  0.155399993       1.73631236E-02
  0.155609995       1.66722350E-02
  0.155819997       1.59450155E-02
  0.156029999       1.51819838E-02
  0.156240001       1.43837333E-02
  0.156450003       1.35509288E-02
  0.156660005       1.26843024E-02
  0.156869993       1.17846616E-02
  0.157079995       1.08528817E-02
  0.157289997       9.88990627E-03
  0.157499999       8.89674760E-03
  0.157710001       7.87448790E-03
  0.157920003       6.82427175E-03
  0.158130005       5.74731221E-03
  0.158340007       4.64488333E-03
  0.158549994       3.51832132E-03
  0.158759996       2.36902060E-03
  0.158969998       1.19843439E-03
  0.159180000       8.06937896E-06
  0.159390002      -1.20051368E-03
  0.159600005      -2.42570415E-03
  0.159810007      -3.66584491E-03
  0.160019994      -4.91923373E-03
  0.160229996      -6.18412858E-03
  0.160439998      -7.45874923E-03
  0.160650000      -8.74128006E-03
  0.160860002      -1.00298719E-02
  0.161070004      -1.13226501E-02
  0.161280006      -1.26177166E-02
  0.161489993      -1.39131499E-02
  0.161699995      -1.52070140E-02
  0.161909997      -1.64973587E-02
  0.162120000      -1.77822243E-02
  0.162330002      -1.90596450E-02
  0.162540004      -2.03276556E-02
  0.162750006      -2.15842891E-02
  0.162959993      -2.28275880E-02
  0.163169995      -2.40556039E-02
  0.163379997      -2.52664052E-02
  0.163589999      -2.64580715E-02
  0.163800001      -2.76287105E-02
  0.164010003      -2.87764575E-02
  0.164220005      -2.98994668E-02
  0.164430007      -3.09959296E-02
  0.164639995      -3.20640802E-02
  0.164849997      -3.31021808E-02
  0.165059999      -3.41085456E-02
  0.165270001      -3.50815356E-02
  0.165480003      -3.60195562E-02
  0.165690005      -3.69210690E-02
  0.165900007      -3.77845801E-02
  0.166109994      -3.86086665E-02
  0.166319996      -3.93919572E-02
  0.166529998      -4.01331522E-02
  0.166740000      -4.08310071E-02
  0.166950002      -4.14843522E-02
  0.167160004      -4.20920812E-02
  0.167370006      -4.26531620E-02
  0.167579994      -4.31666262E-02
  0.167789996      -4.36315872E-02
  0.167999998      -4.40472327E-02
  0.168210000      -4.44128178E-02
  0.168420002      -4.47276905E-02
  0.168630004      -4.49912585E-02
  0.168840006      -4.52030152E-02
  0.169049993      -4.53625321E-02
  0.169259995      -4.54694554E-02
  0.169469997      -4.55235131E-02
  0.169679999      -4.55245078E-02
  0.169890001      -4.54723239E-02
  0.170100003      -4.53669205E-02
  0.170310006      -4.52083349E-02
  0.170519993      -4.49966714E-02
  0.170729995      -4.47321273E-02
  0.170939997      -4.44149673E-02
  0.171149999      -4.40455228E-02
  0.171360001      -4.36242074E-02
  0.171570003      -4.31514978E-02
  0.171780005      -4.26279381E-02
  0.171990007      -4.20541428E-02
  0.172199994      -4.14307900E-02
  0.172409996      -4.07586247E-02
  0.172619998      -4.00384478E-02
  0.172830001      -3.92711386E-02
  0.173040003      -3.84576134E-02
  0.173250005      -3.75988558E-02
  0.173460007      -3.66959013E-02
  0.173669994      -3.57498489E-02
  0.173879996      -3.47618312E-02
  0.174089998      -3.37330401E-02
  0.174300000      -3.26647051E-02
  0.174510002      -3.15580964E-02
  0.174720004      -3.04145310E-02
  0.174930006      -2.92353630E-02
  0.175139993      -2.80219838E-02
  0.175349995      -2.67758202E-02
  0.175559998      -2.54983213E-02
  0.175770000      -2.41909698E-02
  0.175980002      -2.28552818E-02
  0.176190004      -2.14927942E-02
  0.176400006      -2.01050602E-02
  0.176609993      -1.86936632E-02
  0.176819995      -1.72602069E-02
  0.177029997      -1.58062950E-02
  0.177239999      -1.43335490E-02
  0.177450001      -1.28436051E-02
  0.177660003      -1.13381064E-02
  0.177870005      -9.81870200E-03
  0.178080007      -8.28704331E-03
  0.178289995      -6.74479501E-03
  0.178499997      -5.19362697E-03
  0.178709999      -3.63518763E-03
  0.178920001      -2.07112590E-03
  0.179130003      -5.03097835E-04
  0.179340005       1.06725178E-03
  0.179550007       2.63827806E-03
  0.179759994       4.20834590E-03