   0.00000000       0.00000000    
   2.09999998E-04   0.00000000    
   4.19999997E-04   0.00000000    
   6.30000024E-04   0.00000000    
   8.39999993E-04   1.06760332E-20
   1.04999996E-03   1.10855670E-19
   1.26000005E-03   6.20647314E-19
   1.47000002E-03   2.49847485E-18
   1.67999999E-03   8.11503968E-18
   1.88999996E-03   2.26043034E-17
   2.09999993E-03   5.60374565E-17
   2.30999989E-03   1.26708823E-16
   2.52000010E-03   2.65870248E-16
   2.73000007E-03   5.24255478E-16
   2.94000003E-03   9.80772991E-16
   3.15000000E-03   1.75374064E-15
   3.35999997E-03   3.01497481E-15
   3.56999994E-03   5.00708238E-15
   3.77999991E-03   8.06419920E-15
   3.99000011E-03   1.26362044E-14
   4.19999985E-03   1.93164508E-14
   4.41000005E-03   2.88729103E-14
   4.61999979E-03   4.22820856E-14
   4.82999999E-03   6.07655609E-14
   5.04000019E-03   8.58276666E-14
   5.24999993E-03   1.19293274E-13
   5.46000013E-03   1.63344991E-13
   5.66999987E-03   2.20556619E-13
   5.88000007E-03   2.93921923E-13
   6.08999981E-03   3.86876214E-13
   6.30000001E-03   5.03306598E-13
   6.51000021E-03   6.47549505E-13
   6.71999995E-03   8.24369923E-13
   6.93000015E-03   1.03892296E-12
   7.13999989E-03   1.29668661E-12
   7.35000009E-03   1.60337455E-12
   7.55999982E-03   1.96481351E-12
   7.77000003E-03   2.38678435E-12
   7.98000023E-03   2.87483210E-12
   8.19000043E-03   3.43403452E-12
   8.39999970E-03   4.06872496E-12
   8.60999990E-03   4.78217769E-12
   8.82000010E-03   5.57624997E-12
   9.03000031E-03   6.45098861E-12
   9.23999958E-03   7.40419618E-12
   9.44999978E-03   8.43093997E-12
   9.65999998E-03   9.52309065E-12
   9.87000018E-03   1.06687974E-11
   1.00800004E-02   1.18519422E-11
   1.02899997E-02   1.30516587E-11
   1.04999999E-02   1.42418126E-11
   1.07100001E-02   1.53905100E-11
   1.09200003E-02   1.64596843E-11
   1.11300005E-02   1.74047148E-11
   1.13399997E-02   1.81742260E-11
   1.15499999E-02   1.87099832E-11
   1.17600001E-02   1.89466949E-11
   1.19700003E-02   1.88122781E-11
   1.21799996E-02   1.82282106E-11
   1.23899998E-02   1.71099992E-11
   1.26000000E-02   1.53679517E-11
   1.28100002E-02   1.29081077E-11
   1.30200004E-02   9.63370182E-12
   1.32299997E-02   5.44666265E-12
   1.34399999E-02   2.49212462E-13
   1.36500001E-02  -6.05366148E-12
   1.38600003E-02  -1.35518879E-11
   1.40699996E-02  -2.23277664E-11
   1.42799998E-02  -3.24526517E-11
   1.44900000E-02  -4.39839901E-11
   1.47000002E-02  -5.69616403E-11
   1.49100004E-02  -7.14042644E-11
   1.51199996E-02  -8.73056696E-11
   1.53299998E-02  -1.04630977E-10
   1.55400001E-02  -1.23312430E-10
   1.57500003E-02  -1.43245499E-10
   1.59600005E-02  -1.64285766E-10
   1.61700007E-02  -1.86245339E-10
   1.63800009E-02  -2.08889489E-10
   1.65899992E-02  -2.31934333E-10
   1.67999994E-02  -2.55044375E-10
   1.70099996E-02  -2.77831647E-10
   1.72199998E-02  -2.99854891E-10
   1.74300000E-02  -3.20619503E-10
   1.76400002E-02  -3.39579670E-10
   1.78500004E-02  -3.56140367E-10
   1.80600006E-02  -3.69660774E-10
   1.82700008E-02  -3.79459991E-10
   1.84799992E-02  -3.84823479E-10
   1.86899994E-02  -3.85010301E-10
   1.88999996E-02  -3.79262732E-10
   1.91099998E-02  -3.66817327E-10
   1.93200000E-02  -3.46916940E-10
   1.95300002E-02  -3.18824495E-10
   1.97400004E-02  -2.81838330E-10
   1.99500006E-02  -2.35308412E-10
   2.01600008E-02  -1.78653439E-10
   2.03699991E-02  -1.11379440E-10
   2.05799993E-02  -3.30985760E-11
   2.07899995E-02   5.64508787E-11
   2.09999997E-02   1.57385521E-10
   2.12099999E-02   2.69657158E-10
   2.14200001E-02   3.93033273E-10
   2.16300003E-02   5.27080324E-10
   2.18400005E-02   6.71147082E-10
   2.20500007E-02   8.24348145E-10
   2.22600009E-02   9.85552417E-10
   2.24699993E-02   1.15337284E-09
   2.26799995E-02   1.32616118E-09
   2.28899997E-02   1.50200385E-09
   2.30999999E-02   1.67872072E-09
   2.33100001E-02   1.85387261E-09
   2.35200003E-02   2.02477057E-09
   2.37300005E-02   2.18849228E-09
   2.39400007E-02   2.34190511E-09
   2.41500009E-02   2.48168930E-09
   2.43599992E-02   2.60436894E-09
   2.45699994E-02   2.70635359E-09
   2.47799996E-02   2.78398371E-09
   2.49899998E-02   2.83357871E-09
   2.52000000E-02   2.85149393E-09
   2.54100002E-02   2.83418267E-09
   2.56200004E-02   2.77825962E-09
   2.58300006E-02   2.68057487E-09
   2.60400008E-02   2.53828314E-09
   2.62499992E-02   2.34892039E-09
   2.64599994E-02   2.11049112E-09
   2.66699996E-02   1.82153859E-09
   2.68799998E-02   1.48122059E-09
   2.70900000E-02   1.08939513E-09
   2.73000002E-02   6.46686593E-10
   2.75100004E-02   1.54561128E-10
   2.77200006E-02  -3.84614507E-10
   2.79300008E-02  -9.67519287E-10
   2.81399991E-02  -1.58982605E-09
   2.83499993E-02  -2.24617458E-09
   2.85599995E-02  -2.93015412E-09
   2.87699997E-02  -3.63428243E-09
   2.89799999E-02  -4.35001590E-09
   2.91900001E-02  -5.06778353E-09
   2.94000003E-02  -5.77701309E-09
   2.96100006E-02  -6.46620357E-09
   2.98200008E-02  -7.12301063E-09
   3.00299991E-02  -7.73434206E-09
   3.02399993E-02  -8.28647639E-09
   3.04499995E-02  -8.76521256E-09
   3.06599997E-02  -9.15603859E-09
   3.08699999E-02  -9.44431111E-09
   3.10800001E-02  -9.61546132E-09
   3.12899984E-02  -9.65521529E-09
   3.15000005E-02  -9.54983825E-09
   3.17099988E-02  -9.28638944E-09
   3.19200009E-02  -8.85298324E-09
   3.21299993E-02  -8.23906721E-09
   3.23400013E-02  -7.43570450E-09
   3.25499997E-02  -6.43586606E-09
   3.27600017E-02  -5.23469490E-09
   3.29700001E-02  -3.82980359E-09
   3.31799984E-02  -2.22154695E-09
   3.33900005E-02  -4.13265033E-10
   3.35999988E-02   1.58846969E-09
   3.38100009E-02   3.77364007E-09
   3.40199992E-02   6.12860251E-09
   3.42300013E-02   8.63592664E-09
   3.44399996E-02   1.12742882E-08
   3.46500017E-02   1.40184104E-08
   3.48600000E-02   1.68390155E-08
   3.50699984E-02   1.97028651E-08
   3.52800004E-02   2.25728414E-08
   3.54899988E-02   2.54081058E-08
   3.57000008E-02   2.81642905E-08
   3.59099992E-02   3.07937675E-08
   3.61200012E-02   3.32460246E-08
   3.63299996E-02   3.54680161E-08
   3.65400016E-02   3.74046571E-08
   3.67500000E-02   3.89993815E-08
   3.69599983E-02   4.01947524E-08
   3.71700004E-02   4.09331058E-08
   3.73799987E-02   4.11572678E-08
   3.75900008E-02   4.08113614E-08
   3.77999991E-02   3.98416304E-08
   3.80100012E-02   3.81973031E-08
   3.82199995E-02   3.58315262E-08
   3.84300016E-02   3.27022747E-08
   3.86399999E-02   2.87733144E-08
   3.88499983E-02   2.40151206E-08
   3.90600003E-02   1.84058671E-08
   3.92699987E-02   1.19323662E-08
   3.94800007E-02   4.59089167E-09
   3.96899991E-02  -3.61186037E-09
   3.99000011E-02  -1.26579653E-08
   4.01099995E-02  -2.25176890E-08
   4.03200015E-02  -3.31486802E-08
   4.05299999E-02  -4.44954615E-08
   4.07399982E-02  -5.64890499E-08
   4.09500003E-02  -6.90465853E-08
   4.11599986E-02  -8.20712103E-08
   4.13700007E-02  -9.54520019E-08
   4.15799990E-02  -1.09064082E-07
   4.17900011E-02  -1.22768981E-07
   4.19999994E-02  -1.36415125E-07
   4.22100015E-02  -1.49838399E-07
   4.24199998E-02  -1.62863174E-07
   4.26299982E-02  -1.75303214E-07
   4.28400002E-02  -1.86962978E-07
   4.30499986E-02  -1.97639054E-07
   4.32600006E-02  -2.07121758E-07
   4.34699990E-02  -2.15196977E-07
   4.36800011E-02  -2.21648151E-07
   4.38899994E-02  -2.26258479E-07
   4.41000015E-02  -2.28813192E-07
   4.43099998E-02  -2.29102000E-07
   4.45200019E-02  -2.26921728E-07
   4.47300002E-02  -2.22078924E-07
   4.49399985E-02  -2.14392742E-07
   4.51500006E-02  -2.03697653E-07
   4.53599989E-02  -1.89846318E-07
   4.55700010E-02  -1.72712546E-07
   4.57799993E-02  -1.52194005E-07
   4.59900014E-02  -1.28215135E-07
   4.61999997E-02  -1.00729771E-07
   4.64100018E-02  -6.97237184E-08
   4.66200002E-02  -3.52172087E-08
   4.68299985E-02   2.73286505E-09
   4.70400006E-02   4.40308625E-08
   4.72499989E-02   8.85408369E-08
   4.74600010E-02   1.36084907E-07
   4.76699993E-02   1.86441994E-07
   4.78800014E-02   2.39347173E-07
   4.80899997E-02   2.94491144E-07
   4.83000018E-02   3.51520129E-07
   4.85100001E-02   4.10036506E-07
   4.87199984E-02   4.69599343E-07
   4.89300005E-02   5.29725753E-07
   4.91399989E-02   5.89892750E-07
   4.93500009E-02   6.49539345E-07
   4.95599993E-02   7.08069479E-07
   4.97700013E-02   7.64854576E-07
   4.99799997E-02   8.19238380E-07
   5.01900017E-02   8.70540191E-07
   5.04000001E-02   9.18059982E-07
   5.06099984E-02   9.61083060E-07
   5.08200005E-02   9.98885980E-07
   5.10299988E-02   1.03074262E-06
   5.12400009E-02   1.05592972E-06
   5.14499992E-02   1.07373421E-06
   5.16600013E-02   1.08346035E-06
   5.18699996E-02   1.08443567E-06
   5.20800017E-02   1.07601943E-06
   5.22900000E-02   1.05761001E-06
   5.24999984E-02   1.02865204E-06
   5.27100004E-02   9.88644501E-07
   5.29199988E-02   9.37147774E-07
   5.31300008E-02   8.73791578E-07
   5.33399992E-02   7.98282372E-07
   5.35500012E-02   7.10409779E-07
   5.37599996E-02   6.10054371E-07
   5.39700016E-02   4.97193014E-07
   5.41800000E-02   3.71905259E-07
   5.43899983E-02   2.34379215E-07
   5.46000004E-02   8.49157900E-08
   5.48099987E-02  -7.60670531E-08
   5.50200008E-02  -2.48030574E-07
   5.52299991E-02  -4.30312440E-07
   5.54400012E-02  -6.22125242E-07
   5.56499995E-02  -8.22555592E-07
   5.58600016E-02  -1.03056368E-06
   5.60699999E-02  -1.24498445E-06
   5.62799983E-02  -1.46452930E-06
   5.64900003E-02  -1.68778968E-06
   5.66999987E-02  -1.91324102E-06
   5.69100007E-02  -2.13924773E-06
   5.71199991E-02  -2.36407004E-06
   5.73300011E-02  -2.58587079E-06
   5.75399995E-02  -2.80272525E-06
   5.77500015E-02  -3.01262958E-06
   5.79599999E-02  -3.21351195E-06
   5.81699982E-02  -3.40324596E-06
   5.83800003E-02  -3.57966223E-06
   5.85899986E-02  -3.74056185E-06
   5.88000007E-02  -3.88373292E-06
   5.90099990E-02  -4.00696581E-06
   5.92200011E-02  -4.10806888E-06
   5.94299994E-02  -4.18488662E-06
   5.96400015E-02  -4.23531856E-06
   5.98499998E-02  -4.25733697E-06
   6.00599982E-02  -4.24900554E-06
   6.02700002E-02  -4.20849892E-06
   6.04799986E-02  -4.13412317E-06
   6.06900007E-02  -4.02433488E-06
   6.08999990E-02  -3.87776072E-06
   6.11100011E-02  -3.69321765E-06
   6.13199994E-02  -3.46973161E-06
   6.15300015E-02  -3.20655681E-06
   6.17399998E-02  -2.90319258E-06
   6.19499981E-02  -2.55940313E-06
   6.21600002E-02  -2.17523143E-06
   6.23699985E-02  -1.75101604E-06
   6.25799969E-02  -1.28740396E-06
   6.27899989E-02  -7.85365557E-07
   6.30000010E-02  -2.46203342E-07
   6.32100031E-02   3.28438148E-07
   6.34199977E-02   9.36564675E-07
   6.36299998E-02   1.57582610E-06
   6.38400018E-02   2.24351379E-06
   6.40499964E-02   2.93656285E-06
   6.42599985E-02   3.65154870E-06
   6.44700006E-02   4.38469533E-06
   6.46800026E-02   5.13188161E-06
   6.48899972E-02   5.88865123E-06
   6.50999993E-02   6.65022299E-06
   6.53100014E-02   7.41150916E-06
   6.55200034E-02   8.16713509E-06
   6.57299981E-02   8.91145828E-06
   6.59400001E-02   9.63859839E-06
   6.61500022E-02   1.03424572E-05
   6.63599968E-02   1.10167584E-05
   6.65699989E-02   1.16550809E-05
   6.67800009E-02   1.22508909E-05
   6.69900030E-02   1.27975854E-05
   6.71999976E-02   1.32885325E-05
   6.74099997E-02   1.37171191E-05
   6.76200017E-02   1.40768043E-05
   6.78299963E-02   1.43611614E-05
   6.80399984E-02   1.45639278E-05
   6.82500005E-02   1.46790717E-05
   6.84600025E-02   1.47008341E-05
   6.86699972E-02   1.46237890E-05
   6.88799992E-02   1.44429050E-05
   6.90900013E-02   1.41535975E-05
   6.93000033E-02   1.37517882E-05
   6.95099980E-02   1.32339583E-05
   6.97200000E-02   1.25972074E-05
   6.99300021E-02   1.18393091E-05
   7.01399967E-02   1.09587590E-05
   7.03499988E-02   9.95483242E-06
   7.05600008E-02   8.82762379E-06
   7.07700029E-02   7.57809039E-06
   7.09799975E-02   6.20809942E-06
   7.11899996E-02   4.72045667E-06
   7.14000016E-02   3.11893950E-06
   7.16100037E-02   1.40832060E-06
   7.18199983E-02  -4.05612923E-07
   7.20300004E-02  -2.31604668E-06
   7.22400025E-02  -4.31513308E-06
   7.24499971E-02  -6.39399696E-06
   7.26599991E-02  -8.54274003E-06
   7.28700012E-02  -1.07504620E-05
   7.30800033E-02  -1.30052840E-05
   7.32899979E-02  -1.52943867E-05
   7.34999999E-02  -1.76040558E-05
   7.37100020E-02  -1.99197220E-05
   7.39199966E-02  -2.22260405E-05
   7.41299987E-02  -2.45069441E-05
   7.43400007E-02  -2.67457344E-05
   7.45500028E-02  -2.89251693E-05
   7.47599974E-02  -3.10275500E-05
   7.49699995E-02  -3.30348412E-05
   7.51800016E-02  -3.49287693E-05
   7.53900036E-02  -3.66909517E-05
   7.55999982E-02  -3.83030201E-05
   7.58100003E-02  -3.97467484E-05
   7.60200024E-02  -4.10042085E-05
   7.62299970E-02  -4.20578981E-05
   7.64399990E-02  -4.28908897E-05
   7.66500011E-02  -4.34869835E-05
   7.68600032E-02  -4.38308525E-05
   7.70699978E-02  -4.39082105E-05
   7.72799999E-02  -4.37059462E-05
   7.74900019E-02  -4.32122688E-05
   7.76999965E-02  -4.24168757E-05
   7.79099986E-02  -4.13110793E-05
   7.81200007E-02  -3.98879456E-05
   7.83300027E-02  -3.81424215E-05
   7.85399973E-02  -3.60714730E-05
   7.87499994E-02  -3.36741541E-05
   7.89600015E-02  -3.09517491E-05
   7.91700035E-02  -2.79078449E-05
   7.93799981E-02  -2.45484098E-05
   7.95900002E-02  -2.08818346E-05
   7.98000023E-02  -1.69190080E-05
   8.00099969E-02  -1.26733175E-05
   8.02199990E-02  -8.16065585E-06
   8.04300010E-02  -3.39942858E-06
   8.06400031E-02   1.58948262E-06
   8.08499977E-02   6.78277365E-06
   8.10599998E-02   1.21547846E-05
   8.12700018E-02   1.76775793E-05
   8.14799964E-02   2.33210703E-05
   8.16899985E-02   2.90531498E-05
   8.19000006E-02   3.48398316E-05
   8.21100026E-02   4.06454383E-05
   8.23199973E-02   4.64327895E-05
   8.25299993E-02   5.21633883E-05
   8.27400014E-02   5.77976898E-05
   8.29500034E-02   6.32953233E-05
   8.31599981E-02   6.86153653E-05
   8.33700001E-02   7.37165828E-05
   8.35800022E-02   7.85577431E-05
   8.37899968E-02   8.30979479E-05
   8.39999989E-02   8.72968594E-05
   8.42100009E-02   9.11150710E-05
   8.44200030E-02   9.45144129E-05
   8.46299976E-02   9.74582363E-05
   8.48399997E-02   9.99117838E-05
   8.50500017E-02   1.01842466E-04
   8.52599964E-02   1.03220169E-04
   8.54699984E-02   1.04017563E-04
   8.56800005E-02   1.04210383E-04
   8.58900025E-02   1.03777718E-04
   8.60999972E-02   1.02702237E-04
   8.63099992E-02   1.00970457E-04
   8.65200013E-02   9.85729421E-05
   8.67300034E-02   9.55044743E-05
   8.69399980E-02   9.17642683E-05
   8.71500000E-02   8.73560493E-05
   8.73600021E-02   8.22882066E-05
   8.75699967E-02   7.65738441E-05
   8.77799988E-02   7.02308171E-05
   8.79900008E-02   6.32817464E-05
   8.82000029E-02   5.57539825E-05
   8.84099975E-02   4.76795358E-05
   8.86199996E-02   3.90949608E-05
   8.88300017E-02   3.00412376E-05
   8.90400037E-02   2.05635624E-05
   8.92499983E-02   1.07111473E-05
   8.94600004E-02   5.36959305E-07
   8.96700025E-02  -9.90257104E-06
   8.98799971E-02  -2.05478591E-05
   9.00899991E-02  -3.13365490E-05
   9.03000012E-02  -4.22038902E-05
   9.05100033E-02  -5.30831458E-05
   9.07199979E-02  -6.39060017E-05
   9.09299999E-02  -7.46030782E-05
   9.11400020E-02  -8.51044024E-05
   9.13499966E-02  -9.53398703E-05
   9.15599987E-02  -1.05239764E-04
   9.17700008E-02  -1.14735281E-04
   9.19800028E-02  -1.23759048E-04
   9.21899974E-02  -1.32245637E-04
   9.23999995E-02  -1.40132062E-04
   9.26100016E-02  -1.47358354E-04
   9.28200036E-02  -1.53867950E-04
   9.30299982E-02  -1.59608258E-04
   9.32400003E-02  -1.64531055E-04
   9.34500024E-02  -1.68592916E-04
   9.36599970E-02  -1.71755673E-04
   9.38699991E-02  -1.73986744E-04
   9.40800011E-02  -1.75259469E-04
   9.42900032E-02  -1.75553345E-04
   9.44999978E-02  -1.74854387E-04
   9.47099999E-02  -1.73155277E-04
   9.49200019E-02  -1.70455416E-04
   9.51299965E-02  -1.66761180E-04
   9.53399986E-02  -1.62085882E-04
   9.55500007E-02  -1.56449765E-04
   9.57600027E-02  -1.49879997E-04
   9.59699973E-02  -1.42410528E-04
   9.61799994E-02  -1.34081914E-04
   9.63900015E-02  -1.24941071E-04
   9.66000035E-02  -1.15041068E-04
   9.68099982E-02  -1.04440747E-04
   9.70200002E-02  -9.32043258E-05
   9.72300023E-02  -8.14010418E-05
   9.74399969E-02  -6.91045934E-05
   9.76499990E-02  -5.63927315E-05
   9.78600010E-02  -4.33466739E-05
   9.80700031E-02  -3.00504580E-05
   9.82799977E-02  -1.65903966E-05
   9.84899998E-02  -3.05440403E-06
   9.87000018E-02   1.04686223E-05
   9.89099964E-02   2.38894645E-05
   9.91199985E-02   3.71193055E-05
   9.93300006E-02   5.00704118E-05
   9.95400026E-02   6.26567562E-05
   9.97499973E-02   7.47947415E-05
   9.99599993E-02   8.64038739E-05
  0.100170001       9.74073628E-05
  0.100380003       1.07732718E-04
  0.100589998       1.17312360E-04
  0.100800000       1.26084182E-04
  0.101010002       1.33992042E-04
  0.101219997       1.40986231E-04
  0.101429999       1.47023864E-04
  0.101640001       1.52069275E-04
  0.101850003       1.56094291E-04
  0.102059998       1.59078510E-04
  0.102270000       1.61009419E-04
  0.102480002       1.61882592E-04
  0.102689996       1.61701697E-04
  0.102899998       1.60478521E-04
  0.103110000       1.58232797E-04
  0.103320003       1.54992173E-04
  0.103529997       1.50791937E-04
  0.103739999       1.45674770E-04
  0.103950001       1.39690368E-04
  0.104160003       1.32895118E-04
  0.104369998       1.25351580E-04
  0.104580000       1.17128038E-04
  0.104790002       1.08297936E-04
  0.104999997       9.89392429E-05
  0.105209999       8.91338423E-05
  0.105420001       7.89669139E-05
  0.105630003       6.85262057E-05
  0.105839998       5.79012994E-05
  0.106050000       4.71829553E-05
  0.106260002       3.64623083E-05
  0.106470004       2.58301807E-05
  0.106679998       1.53763485E-05
  0.106890000       5.18878051E-06
  0.107100002      -4.64700270E-06
  0.107309997      -1.40486809E-05
  0.107519999      -2.29377492E-05
  0.107730001      -3.12400625E-05
  0.107940003      -3.88865192E-05
  0.108149998      -4.58135037E-05
  0.108360000      -5.19633795E-05
  0.108570002      -5.72850004E-05
  0.108779997      -6.17339319E-05
  0.108989999      -6.52727613E-05
  0.109200001      -6.78714496E-05
  0.109410003      -6.95074268E-05
  0.109619997      -7.01656463E-05
  0.109830000      -6.98387594E-05
  0.110040002      -6.85269988E-05
  0.110250004      -6.62380189E-05
  0.110459998      -6.29868664E-05
  0.110670000      -5.87957547E-05
  0.110880002      -5.36936677E-05
  0.111089997      -4.77160575E-05
  0.111299999      -4.09044587E-05
  0.111510001      -3.33061034E-05
  0.111720003      -2.49733530E-05
  0.111929998      -1.59632309E-05
  0.112140000      -6.33685931E-06
  0.112350002       3.84116538E-06
  0.112559997       1.45032654E-05
  0.112769999       2.55795276E-05
  0.112980001       3.69983718E-05
  0.113190003       4.86872013E-05
  0.113399997       6.05728892E-05
  0.113609999       7.25824793E-05
  0.113820001       8.46438270E-05
  0.114030004       9.66859516E-05
  0.114239998       1.08639637E-04
  0.114450000       1.20437886E-04
  0.114660002       1.32016459E-04
  0.114869997       1.43314173E-04
  0.115079999       1.54273250E-04
  0.115290001       1.64839556E-04
  0.115500003       1.74962930E-04
  0.115709998       1.84597186E-04
  0.115920000       1.93700253E-04
  0.116130002       2.02234296E-04
  0.116339996       2.10165570E-04
  0.116549999       2.17464301E-04
  0.116760001       2.24104660E-04
  0.116970003       2.30064368E-04
  0.117179997       2.35324478E-04
  0.117389999       2.39869143E-04
  0.117600001       2.43685005E-04
  0.117810003       2.46760901E-04
  0.118019998       2.49087403E-04
  0.118230000       2.50656216E-04
  0.118440002       2.51459773E-04
  0.118649997       2.51490477E-04
  0.118859999       2.50740384E-04
  0.119070001       2.49200530E-04
  0.119280003       2.46860203E-04
  0.119489998       2.43706774E-04
  0.119700000       2.39724701E-04
  0.119910002       2.34895197E-04
  0.120119996       2.29195968E-04
  0.120329998       2.22600545E-04
  0.120540000       2.15077933E-04
  0.120750003       2.06592405E-04
  0.120959997       1.97103218E-04
  0.121169999       1.86564386E-04
  0.121380001       1.74924615E-04
  0.121590003       1.62127413E-04
  0.121799998       1.48110834E-04
  0.122010000       1.32807952E-04
  0.122220002       1.16147137E-04
  0.122429997       9.80522163E-05
  0.122639999       7.84429576E-05
  0.122850001       5.72356730E-05
  0.123060003       3.43439388E-05
  0.123269998       9.67935830E-06
  0.123480000      -1.68476963E-05
  0.123690002      -4.53272623E-05
  0.123899996      -7.58485985E-05
  0.124109998      -1.08499284E-04
  0.124320000      -1.43363897E-04
  0.124530002      -1.80522868E-04
  0.124739997      -2.20051297E-04
  0.124949999      -2.62017653E-04
  0.125159994      -3.06482310E-04
  0.125369996      -3.53496347E-04
  0.125579998      -4.03100159E-04
  0.125790000      -4.55322006E-04
  0.126000002      -5.10176993E-04
  0.126210004      -5.67665324E-04
  0.126420006      -6.27771369E-04
  0.126629993      -6.90462242E-04
  0.126839995      -7.55686604E-04
  0.127049997      -8.23374023E-04
  0.127260000      -8.93433811E-04
  0.127470002      -9.65753512E-04
  0.127680004      -1.04019896E-03
  0.127890006      -1.11661339E-03
  0.128099993      -1.19481713E-03
  0.128309995      -1.27460668E-03
  0.128519997      -1.35575503E-03
  0.128729999      -1.43801153E-03
  0.128940001      -1.52110215E-03
  0.129150003      -1.60472887E-03
  0.129360005      -1.68857188E-03
  0.129570007      -1.77228893E-03
  0.129779994      -1.85551657E-03
  0.129989997      -1.93787110E-03
  0.130199999      -2.01894925E-03
  0.130410001      -2.09833123E-03
  0.130620003      -2.17558048E-03
  0.130830005      -2.25024670E-03
  0.131040007      -2.32186704E-03
  0.131249994      -2.38996814E-03
  0.131459996      -2.45406851E-03
  0.131669998      -2.51368037E-03
  0.131880000      -2.56831315E-03
  0.132090002      -2.61747511E-03
  0.132300004      -2.66067707E-03
  0.132510006      -2.69743335E-03
  0.132719994      -2.72726594E-03
  0.132929996      -2.74970685E-03
  0.133139998      -2.76430207E-03
  0.133350000      -2.77061225E-03
  0.133560002      -2.76821759E-03
  0.133770004      -2.75671948E-03
  0.133980006      -2.73574423E-03
  0.134189993      -2.70494516E-03
  0.134399995      -2.66400492E-03
  0.134609997      -2.61263922E-03
  0.134819999      -2.55059777E-03
  0.135030001      -2.47766799E-03
  0.135240003      -2.39367667E-03
  0.135450006      -2.29849154E-03
  0.135659993      -2.19202274E-03
  0.135869995      -2.07422650E-03
  0.136079997      -1.94510375E-03
  0.136289999      -1.80470315E-03
  0.136500001      -1.65312144E-03
  0.136710003      -1.49050425E-03
  0.136920005      -1.31704635E-03
  0.137130007      -1.13299198E-03
  0.137339994      -9.38634737E-04
  0.137549996      -7.34316825E-04
  0.137759998      -5.20429108E-04
  0.137970001      -2.97410268E-04
  0.138180003      -6.57447526E-05
  0.138390005       1.74037676E-04
  0.138600007       4.21363889E-04
  0.138809994       6.75619522E-04
  0.139019996       9.36150958E-04
  0.139229998       1.20226748E-03
  0.139440000       1.47324393E-03
  0.139650002       1.74832379E-03
  0.139860004       2.02672277E-03
  0.140070006       2.30762991E-03
  0.140279993       2.59021274E-03
  0.140489995       2.87362002E-03
  0.140699998       3.15698609E-03
  0.140910000       3.43943341E-03
  0.141120002       3.72007699E-03
  0.141330004       3.99802765E-03
  0.141540006       4.27239668E-03
  0.141749993       4.54229955E-03
  0.141959995       4.80685988E-03
  0.142169997       5.06521249E-03
  0.142379999       5.31650754E-03
  0.142590001       5.55991521E-03
  0.142800003       5.79462852E-03
  0.143010005       6.01986609E-03
  0.143220007       6.23487728E-03
  0.143429995       6.43894449E-03
  0.143639997       6.63138740E-03
  0.143849999       6.81156386E-03
  0.144060001       6.97887316E-03
  0.144270003       7.13275978E-03
  0.144480005       7.27271475E-03
  0.144690007       7.39827938E-03
  0.144899994       7.50904437E-03
  0.145109996       7.60465255E-03
  0.145319998       7.68480031E-03
  0.145530000       7.74923898E-03
  0.145740002       7.79777439E-03
  0.145950004       7.83027057E-03
  0.146160007       7.84664229E-03
  0.146369994       7.84686580E-03
  0.146579996       7.83096813E-03
  0.146789998       7.79903401E-03
  0.147000000       7.75119988E-03
  0.147210002       7.68765574E-03
  0.147420004       7.60864234E-03
  0.147630006       7.51445023E-03
  0.147839993       7.40541657E-03
  0.148049995       7.28192367E-03
  0.148259997       7.14439712E-03
  0.148469999       6.99330214E-03
  0.148680001       6.82914257E-03
  0.148890004       6.65245624E-03
  0.149100006       6.46381220E-03
  0.149309993       6.26380742E-03
  0.149519995       6.05306495E-03
  0.149729997       5.83222881E-03
  0.149939999       5.60196117E-03
  0.150150001       5.36293723E-03
  0.150360003       5.11584664E-03
  0.150570005       4.86138463E-03
  0.150780007       4.60024970E-03
  0.150989994       4.33314219E-03
  0.151199996       4.06075921E-03
  0.151409999       3.78379063E-03
  0.151620001       3.50291585E-03
  0.151830003       3.21880262E-03
  0.152040005       2.93210242E-03
  0.152250007       2.64344877E-03
  0.152459994       2.35345215E-03
  0.152669996       2.06269836E-03
  0.152879998       1.77174632E-03
  0.153090000       1.48112583E-03
  0.153300002       1.19133608E-03
  0.153510004       9.02842847E-04
  0.153720006       6.16079080E-04
  0.153929994       3.31440038E-04
  0.154139996       4.92841573E-05
  0.154349998      -2.30066726E-04
  0.154560000      -5.06330805E-04
  0.154770002      -7.79265829E-04
  0.154980004      -1.04866677E-03
  0.155190006      -1.31436775E-03
  0.155399993      -1.57624250E-03
  0.155609995      -1.83420198E-03
  0.155819997      -2.08819448E-03
  0.156029999      -2.33820453E-03
  0.156240001      -2.58425088E-03
  0.156450003      -2.82638636E-03
  0.156660005      -3.06469365E-03
  0.156869993      -3.29928403E-03
  0.157079995      -3.53029836E-03
  0.157289997      -3.75790335E-03
  0.157499999      -3.98228643E-03
  0.157710001      -4.20365576E-03
  0.157920003      -4.42223577E-03
  0.158130005      -4.63826768E-03
  0.158340007      -4.85200249E-03
  0.158549994      -5.06369909E-03
  0.158759996      -5.27362432E-03
  0.158969998      -5.48204593E-03
  0.159180000      -5.68923121E-03
  0.159390002      -5.89544280E-03
  0.159600005      -6.10093540E-03
  0.159810007      -6.30595675E-03
  0.160019994      -6.51073968E-03
  0.160229996      -6.71550166E-03
  0.160439998      -6.92044199E-03
  0.160650000      -7.12573575E-03
  0.160860002      -7.33153429E-03
  0.161070004      -7.53796287E-03
  0.161280006      -7.74511695E-03
  0.161489993      -7.95305986E-03
  0.161699995      -8.16182047E-03
  0.161909997      -8.37139599E-03
  0.162120000      -8.58174171E-03
  0.162330002      -8.79277103E-03
  0.162540004      -9.00436286E-03
  0.162750006      -9.21635143E-03
  0.162959993      -9.42853093E-03
  0.163169995      -9.64065176E-03
  0.163379997      -9.85242054E-03
  0.163589999      -1.00635029E-02
  0.163800001      -1.02735162E-02
  0.164010003      -1.04820384E-02
  0.164220005      -1.06886020E-02
  0.164430007      -1.08926985E-02
  0.164639995      -1.10937776E-02
  0.164849997      -1.12912515E-02
  0.165059999      -1.14844935E-02
  0.165270001      -1.16728367E-02
  0.165480003      -1.18555781E-02
  0.165690005      -1.20319854E-02
  0.165900007      -1.22012952E-02
  0.166109994      -1.23627121E-02
  0.166319996      -1.25154117E-02
  0.166529998      -1.26585467E-02
  0.166740000      -1.27912527E-02
  0.166950002      -1.29126422E-02
  0.167160004      -1.30218100E-02
  0.167370006      -1.31178340E-02
  0.167579994      -1.31997829E-02
  0.167789996      -1.32667152E-02
  0.167999998      -1.33176818E-02
  0.168210000      -1.33517254E-02
  0.168420002      -1.33678913E-02
  0.168630004      -1.33652249E-02
  0.168840006      -1.33427689E-02
  0.169049993      -1.32995741E-02
  0.169259995      -1.32346973E-02
  0.169469997      -1.31471977E-02
  0.169679999      -1.30361421E-02
  0.169890001      -1.29006105E-02
  0.170100003      -1.27396900E-02
  0.170310006      -1.25524756E-02
  0.170519993      -1.23380776E-02
  0.170729995      -1.20956069E-02
  0.170939997      -1.18241915E-02
  0.171149999      -1.15229683E-02
  0.171360001      -1.11910747E-02
  0.171570003      -1.08276615E-02
  0.171780005      -1.04318783E-02
  0.171990007      -1.00028748E-02
  0.172199994      -9.53980070E-03
  0.172409996      -9.04180761E-03
  0.172619998      -8.50803405E-03
  0.172830001      -7.93761108E-03
  0.173040003      -7.32965861E-03
  0.173250005      -6.68326579E-03
  0.173460007      -5.99750504E-03
  0.173669994      -5.27141755E-03
  0.173879996      -4.50400915E-03
  0.174089998      -3.69425537E-03
  0.174300000      -2.84108543E-03
  0.174510002      -1.94338197E-03
  0.174720004      -9.99975018E-04
  0.174930006      -9.62964714E-06
  0.175139993       1.02894567E-03
  0.175349995       2.11710948E-03
  0.175559998       3.25631071E-03
  0.175770000       4.44807205E-03
  0.175980002       5.69399679E-03
  0.176190004       6.99578924E-03
  0.176400006       8.35523475E-03
  0.176609993       9.77422390E-03
  0.176819995       1.12547474E-02
  0.177029997       1.27988951E-02
  0.177239999       1.44088678E-02
  0.177450001       1.60869844E-02
  0.177660003       1.78356711E-02
  0.177870005       1.96574703E-02
  0.178080007       2.15550493E-02
  0.178289995       2.35311724E-02
  0.178499997       2.55887024E-02
  0.178709999       2.77306270E-02
  0.178920001       2.99600586E-02
  0.179130003       3.22802067E-02
  0.179340005       3.46943736E-02
  0.179550007       3.72059755E-02
  0.179759994       3.98185030E-02