   0.00000000       0.00000000    
   2.09999998E-04   0.00000000    
   4.19999997E-04   0.00000000    
   6.30000024E-04   0.00000000    
   8.39999993E-04   2.34379607E-20
   1.04999996E-03   2.47091748E-19
   1.26000005E-03   1.40323281E-18
   1.47000002E-03   5.72101438E-18
   1.67999999E-03   1.87889229E-17
   1.88999996E-03   5.28393545E-17
   2.09999993E-03   1.32067974E-16
   2.30999989E-03   3.00702837E-16
   2.52000010E-03   6.34610160E-16
   2.73000007E-03   1.25726043E-15
   2.94000003E-03   2.36088094E-15
   3.15000000E-03   4.23354563E-15
   3.35999997E-03   7.29282577E-15
   3.56999994E-03   1.21264557E-14
   3.77999991E-03   1.95401404E-14
   3.99000011E-03   3.06123467E-14
   4.19999985E-03   4.67553852E-14
   4.41000005E-03   6.97817929E-14
   4.61999979E-03   1.01974466E-13
   4.82999999E-03   1.46157649E-13
   5.04000019E-03   2.05766719E-13
   5.24999993E-03   2.84912746E-13
   5.46000013E-03   3.88437465E-13
   5.66999987E-03   5.21953574E-13
   5.88000007E-03   6.91865022E-13
   6.08999981E-03   9.05362157E-13
   6.30000001E-03   1.17038356E-12
   6.51000021E-03   1.49553774E-12
   6.71999995E-03   1.88997971E-12
   6.93000015E-03   2.36323309E-12
   7.13999989E-03   2.92495542E-12
   7.35000009E-03   3.58463433E-12
   7.55999982E-03   4.35121297E-12
   7.77000003E-03   5.23263984E-12
   7.98000023E-03   6.23534601E-12
   8.19000043E-03   7.36363401E-12
   8.39999970E-03   8.61899354E-12
   8.60999990E-03   9.99934250E-12
   8.82000010E-03   1.14981843E-11
   9.03000031E-03   1.31037368E-11
   9.23999958E-03   1.47979701E-11
   9.44999978E-03   1.65556284E-11
   9.65999998E-03   1.83432488E-11
   9.87000018E-03   2.01181363E-11
   1.00800004E-02   2.18274270E-11
   1.02899997E-02   2.34071755E-11
   1.04999999E-02   2.47815015E-11
   1.07100001E-02   2.58618977E-11
   1.09200003E-02   2.65466954E-11
   1.11300005E-02   2.67206916E-11
   1.13399997E-02   2.62550173E-11
   1.15499999E-02   2.50072567E-11
   1.17600001E-02   2.28219353E-11
   1.19700003E-02   1.95313730E-11
   1.21799996E-02   1.49568795E-11
   1.23899998E-02   8.91033688E-12
   1.26000000E-02   1.19640127E-12
   1.28100002E-02  -8.38495592E-12
   1.30200004E-02  -2.00354074E-11
   1.32299997E-02  -3.39546134E-11
   1.34399999E-02  -5.03360409E-11
   1.36500001E-02  -6.93621410E-11
   1.38600003E-02  -9.11994369E-11
   1.40699996E-02  -1.15992521E-10
   1.42799998E-02  -1.43857898E-10
   1.44900000E-02  -1.74877737E-10
   1.47000002E-02  -2.09092507E-10
   1.49100004E-02  -2.46493742E-10
   1.51199996E-02  -2.87016882E-10
   1.53299998E-02  -3.30533517E-10
   1.55400001E-02  -3.76844028E-10
   1.57500003E-02  -4.25670194E-10
   1.59600005E-02  -4.76648110E-10
   1.61700007E-02  -5.29321309E-10
   1.63800009E-02  -5.83135373E-10
   1.65899992E-02  -6.37432107E-10
   1.67999994E-02  -6.91445678E-10
   1.70099996E-02  -7.44299289E-10
   1.72199998E-02  -7.95003285E-10
   1.74300000E-02  -8.42455106E-10
   1.76400002E-02  -8.85441054E-10
   1.78500004E-02  -9.22639021E-10
   1.80600006E-02  -9.52624424E-10
   1.82700008E-02  -9.73877645E-10
   1.84799992E-02  -9.84794024E-10
   1.86899994E-02  -9.83696791E-10
   1.88999996E-02  -9.68851555E-10
   1.91099998E-02  -9.38484401E-10
   1.93200000E-02  -8.90802543E-10
   1.95300002E-02  -8.24017188E-10
   1.97400004E-02  -7.36369632E-10
   1.99500006E-02  -6.26159513E-10
   2.01600008E-02  -4.91775953E-10
   2.03699991E-02  -3.31730809E-10
   2.05799993E-02  -1.44693812E-10
   2.07899995E-02   7.04701575E-11
   2.09999997E-02   3.14662213E-10
   2.12099999E-02   5.88509741E-10
   2.14200001E-02   8.92325436E-10
   2.16300003E-02   1.22606603E-09
   2.18400005E-02   1.58929314E-09
   2.20500007E-02   1.98113348E-09
   2.22600009E-02   2.40023801E-09
   2.24699993E-02   2.84474710E-09
   2.26799995E-02   3.31225847E-09
   2.28899997E-02   3.79979470E-09
   2.30999999E-02   4.30377822E-09
   2.33100001E-02   4.82001017E-09
   2.35200003E-02   5.34365707E-09
   2.37300005E-02   5.86923932E-09
   2.39400007E-02   6.39062980E-09
   2.41500009E-02   6.90106194E-09
   2.43599992E-02   7.39314343E-09
   2.45699994E-02   7.85888155E-09
   2.47799996E-02   8.28971380E-09
   2.49899998E-02   8.67655814E-09
   2.52000000E-02   9.00985953E-09
   2.54100002E-02   9.27965793E-09
   2.56200004E-02   9.47567358E-09
   2.58300006E-02   9.58738866E-09
   2.60400008E-02   9.60413971E-09
   2.62499992E-02   9.51523838E-09
   2.64599994E-02   9.31009492E-09
   2.66699996E-02   8.97835140E-09
   2.68799998E-02   8.51001403E-09
   2.70900000E-02   7.89560595E-09
   2.73000002E-02   7.12633064E-09
   2.75100004E-02   6.19423979E-09
   2.77200006E-02   5.09239895E-09
   2.79300008E-02   3.81506382E-09
   2.81399991E-02   2.35785991E-09
   2.83499993E-02   7.17965687E-10
   2.85599995E-02  -1.10571563E-09
   2.87699997E-02  -3.11238502E-09
   2.89799999E-02  -5.29917443E-09
   2.91900001E-02  -7.66099184E-09
   2.94000003E-02  -1.01903668E-08
   2.96100006E-02  -1.28773214E-08
   2.98200008E-02  -1.57092508E-08
   3.00299991E-02  -1.86708089E-08
   3.02399993E-02  -2.17438387E-08
   3.04499995E-02  -2.49073100E-08
   3.06599997E-02  -2.81372952E-08
   3.08699999E-02  -3.14069588E-08
   3.10800001E-02  -3.46865967E-08
   3.12899984E-02  -3.79436749E-08
   3.15000005E-02  -4.11429681E-08
   3.17099988E-02  -4.42466401E-08
   3.19200009E-02  -4.72144706E-08
   3.21299993E-02  -5.00040187E-08
   3.23400013E-02  -5.25709005E-08
   3.25499997E-02  -5.48690906E-08
   3.27600017E-02  -5.68512242E-08
   3.29700001E-02  -5.84689914E-08
   3.31799984E-02  -5.96735461E-08
   3.33900005E-02  -6.04159709E-08
   3.35999988E-02  -6.06477286E-08
   3.38100009E-02  -6.03212342E-08
   3.40199992E-02  -5.93903522E-08
   3.42300013E-02  -5.78110217E-08
   3.44399996E-02  -5.55418360E-08
   3.46500017E-02  -5.25446815E-08
   3.48600000E-02  -4.87853598E-08
   3.50699984E-02  -4.42342305E-08
   3.52800004E-02  -3.88668902E-08
   3.54899988E-02  -3.26648220E-08
   3.57000008E-02  -2.56159822E-08
   3.59099992E-02  -1.77154771E-08
   3.61200012E-02  -8.96610874E-09
   3.63299996E-02   6.21050156E-10
   3.65400016E-02   1.10260965E-08
   3.67500000E-02   2.22198686E-08
   3.69599983E-02   3.41635165E-08
   3.71700004E-02   4.68081538E-08
   3.73799987E-02   6.00945924E-08
   3.75900008E-02   7.39530890E-08
   3.77999991E-02   8.83032598E-08
   3.80100012E-02   1.03054099E-07
   3.82199995E-02   1.18104005E-07
   3.84300016E-02   1.33340990E-07
   3.86399999E-02   1.48643011E-07
   3.88499983E-02   1.63878326E-07
   3.90600003E-02   1.78906120E-07
   3.92699987E-02   1.93577037E-07
   3.94800007E-02   2.07734104E-07
   3.96899991E-02   2.21213526E-07
   3.99000011E-02   2.33845725E-07
   4.01099995E-02   2.45456647E-07
   4.03200015E-02   2.55868827E-07
   4.05299999E-02   2.64902837E-07
   4.07399982E-02   2.72378941E-07
   4.09500003E-02   2.78118421E-07
   4.11599986E-02   2.81945489E-07
   4.13700007E-02   2.83688934E-07
   4.15799990E-02   2.83183994E-07
   4.17900011E-02   2.80274236E-07
   4.19999994E-02   2.74813544E-07
   4.22100015E-02   2.66668138E-07
   4.24199998E-02   2.55718419E-07
   4.26299982E-02   2.41860960E-07
   4.28400002E-02   2.25010623E-07
   4.30499986E-02   2.05102310E-07
   4.32600006E-02   1.82092847E-07
   4.34699990E-02   1.55962809E-07
   4.36800011E-02   1.26718149E-07
   4.38899994E-02   9.43916731E-08
   4.41000015E-02   5.90445133E-08
   4.43099998E-02   2.07673736E-08
   4.45200019E-02  -2.03185149E-08
   4.47300002E-02  -6.40605151E-08
   4.49399985E-02  -1.10273902E-07
   4.51500006E-02  -1.58741628E-07
   4.53599989E-02  -2.09214107E-07
   4.55700010E-02  -2.61409411E-07
   4.57799993E-02  -3.15013665E-07
   4.59900014E-02  -3.69681942E-07
   4.61999997E-02  -4.25039133E-07
   4.64100018E-02  -4.80681479E-07
   4.66200002E-02  -5.36178106E-07
   4.68299985E-02  -5.91073103E-07
   4.70400006E-02  -6.44888019E-07
   4.72499989E-02  -6.97124221E-07
   4.74600010E-02  -7.47266199E-07
   4.76699993E-02  -7.94784341E-07
   4.78800014E-02  -8.39139204E-07
   4.80899997E-02  -8.79784750E-07
   4.83000018E-02  -9.16172894E-07
   4.85100001E-02  -9.47757258E-07
   4.87199984E-02  -9.73998340E-07
   4.89300005E-02  -9.94368179E-07
   4.91399989E-02  -1.00835496E-06
   4.93500009E-02  -1.01546834E-06
   4.95599993E-02  -1.01524438E-06
   4.97700013E-02  -1.00725117E-06
   4.99799997E-02  -9.91093202E-07
   5.01900017E-02  -9.66417133E-07
   5.04000001E-02  -9.32917203E-07
   5.06099984E-02  -8.90339493E-07
   5.08200005E-02  -8.38487381E-07
   5.10299988E-02  -7.77225864E-07
   5.12400009E-02  -7.06485991E-07
   5.14499992E-02  -6.26269241E-07
   5.16600013E-02  -5.36650759E-07
   5.18699996E-02  -4.37783314E-07
   5.20800017E-02  -3.29900473E-07
   5.22900000E-02  -2.13317890E-07
   5.24999984E-02  -8.84362024E-08
   5.27100004E-02   4.42575327E-08
   5.29199988E-02   1.84189417E-07
   5.31300008E-02   3.30698413E-07
   5.33399992E-02   4.83036501E-07
   5.35500012E-02   6.40369763E-07
   5.37599996E-02   8.01780914E-07
   5.39700016E-02   9.66271386E-07
   5.41800000E-02   1.13276428E-06
   5.43899983E-02   1.30010949E-06
   5.46000004E-02   1.46708726E-06
   5.48099987E-02   1.63241464E-06
   5.50200008E-02   1.79475171E-06
   5.52299991E-02   1.95270854E-06
   5.54400012E-02   2.10485314E-06
   5.56499995E-02   2.24971905E-06
   5.58600016E-02   2.38581629E-06
   5.60699999E-02   2.51163920E-06
   5.62799983E-02   2.62567846E-06
   5.64900003E-02   2.72643138E-06
   5.66999987E-02   2.81241296E-06
   5.69100007E-02   2.88216916E-06
   5.71199991E-02   2.93428752E-06
   5.73300011E-02   2.96741177E-06
   5.75399995E-02   2.98025316E-06
   5.77500015E-02   2.97160341E-06
   5.79599999E-02   2.94034953E-06
   5.81699982E-02   2.88548563E-06
   5.83800003E-02   2.80612630E-06
   5.85899986E-02   2.70151941E-06
   5.88000007E-02   2.57105899E-06
   5.90099990E-02   2.41429734E-06
   5.92200011E-02   2.23095662E-06
   5.94299994E-02   2.02093952E-06
   5.96400015E-02   1.78434016E-06
   5.98499998E-02   1.52145412E-06
   6.00599982E-02   1.23278653E-06
   6.02700002E-02   9.19060312E-07
   6.04799986E-02   5.81221627E-07
   6.06900007E-02   2.20445884E-07
   6.08999990E-02  -1.61857898E-07
   6.11100011E-02  -5.64044967E-07
   6.13199994E-02  -9.84234475E-07
   6.15300015E-02  -1.42030876E-06
   6.17399998E-02  -1.86991724E-06
   6.19499981E-02  -2.33047922E-06
   6.21600002E-02  -2.79919072E-06
   6.23699985E-02  -3.27303201E-06
   6.25799969E-02  -3.74877618E-06
   6.27899989E-02  -4.22300354E-06
   6.30000010E-02  -4.69211273E-06
   6.32100031E-02  -5.15233887E-06
   6.34199977E-02  -5.59976979E-06
   6.36299998E-02  -6.03036688E-06
   6.38400018E-02  -6.43998692E-06
   6.40499964E-02  -6.82440532E-06
   6.42599985E-02  -7.17934427E-06
   6.44700006E-02  -7.50049594E-06
   6.46800026E-02  -7.78355661E-06
   6.48899972E-02  -8.02425348E-06
   6.50999993E-02  -8.21838330E-06
   6.53100014E-02  -8.36183881E-06
   6.55200034E-02  -8.45065006E-06
   6.57299981E-02  -8.48101990E-06
   6.59400001E-02  -8.44935585E-06
   6.61500022E-02  -8.35231276E-06
   6.63599968E-02  -8.18683111E-06
   6.65699989E-02  -7.95016967E-06
   6.67800009E-02  -7.63995376E-06
   6.69900030E-02  -7.25420432E-06
   6.71999976E-02  -6.79137747E-06
   6.74099997E-02  -6.25040229E-06
   6.76200017E-02  -5.63071262E-06
   6.78299963E-02  -4.93228163E-06
   6.80399984E-02  -4.15565455E-06
   6.82500005E-02  -3.30197258E-06
   6.84600025E-02  -2.37300310E-06
   6.86699972E-02  -1.37115978E-06
   6.88799992E-02  -2.99524515E-07
   6.90900013E-02   8.38135293E-07
   6.93000033E-02   2.03735704E-06
   6.95099980E-02   3.29297950E-06
   6.97200000E-02   4.59913599E-06
   6.99300021E-02   5.94925496E-06
   7.01399967E-02   7.33607158E-06
   7.03499988E-02   8.75163732E-06
   7.05600008E-02   1.01873429E-05
   7.07700029E-02   1.16339415E-05
   7.09799975E-02   1.30815752E-05
   7.11899996E-02   1.45198183E-05
   7.14000016E-02   1.59377196E-05
   7.16100037E-02   1.73238459E-05
   7.18199983E-02   1.86663474E-05
   7.20300004E-02   1.99530186E-05
   7.22400025E-02   2.11713541E-05
   7.24499971E-02   2.23086390E-05
   7.26599991E-02   2.33520186E-05
   7.28700012E-02   2.42885890E-05
   7.30800033E-02   2.51054844E-05
   7.32899979E-02   2.57899737E-05
   7.34999999E-02   2.63295624E-05
   7.37100020E-02   2.67120849E-05
   7.39199966E-02   2.69258235E-05
   7.41299987E-02   2.69596148E-05
   7.43400007E-02   2.68029526E-05
   7.45500028E-02   2.64461014E-05
   7.47599974E-02   2.58802156E-05
   7.49699995E-02   2.50974444E-05
   7.51800016E-02   2.40910413E-05
   7.53900036E-02   2.28554673E-05
   7.55999982E-02   2.13864987E-05
   7.58100003E-02   1.96813344E-05
   7.60200024E-02   1.77386792E-05
   7.62299970E-02   1.55588332E-05
   7.64399990E-02   1.31437737E-05
   7.66500011E-02   1.04972287E-05
   7.68600032E-02   7.62473928E-06
   7.70699978E-02   4.53371331E-06
   7.72799999E-02   1.23346979E-06
   7.74900019E-02  -2.26473276E-06
   7.76999965E-02  -5.94768562E-06
   7.79099986E-02  -9.80021923E-06
   7.81200007E-02  -1.38052073E-05
   7.83300027E-02  -1.79436029E-05
   7.85399973E-02  -2.21944756E-05
   7.87499994E-02  -2.65350645E-05
   7.89600015E-02  -3.09408460E-05
   7.91700035E-02  -3.53856303E-05
   7.93799981E-02  -3.98416596E-05
   7.95900002E-02  -4.42797245E-05
   7.98000023E-02  -4.86693207E-05
   8.00099969E-02  -5.29787721E-05
   8.02199990E-02  -5.71754172E-05
   8.04300010E-02  -6.12257718E-05
   8.06400031E-02  -6.50957591E-05
   8.08499977E-02  -6.87508727E-05
   8.10599998E-02  -7.21564429E-05
   8.12700018E-02  -7.52778215E-05
   8.14799964E-02  -7.80806513E-05
   8.16899985E-02  -8.05311356E-05
   8.19000006E-02  -8.25962197E-05
   8.21100026E-02  -8.42439404E-05
   8.23199973E-02  -8.54436075E-05
   8.25299993E-02  -8.61661465E-05
   8.27400014E-02  -8.63843088E-05
   8.29500034E-02  -8.60729342E-05
   8.31599981E-02  -8.52092417E-05
   8.33700001E-02  -8.37730622E-05
   8.35800022E-02  -8.17470427E-05
   8.37899968E-02  -7.91169441E-05
   8.39999989E-02  -7.58718161E-05
   8.42100009E-02  -7.20042153E-05
   8.44200030E-02  -6.75103656E-05
   8.46299976E-02  -6.23903325E-05
   8.48399997E-02  -5.66481904E-05
   8.50500017E-02  -5.02921321E-05
   8.52599964E-02  -4.33345485E-05
   8.54699984E-02  -3.57920981E-05
   8.56800005E-02  -2.76857827E-05
   8.58900025E-02  -1.90409337E-05
   8.60999972E-02  -9.88718693E-06
   8.63099992E-02  -2.58473563E-07
   8.65200013E-02   9.80709228E-06
   8.67300034E-02   2.02673091E-05
   8.69399980E-02   3.10760188E-05
   8.71500000E-02   4.21832920E-05
   8.73600021E-02   5.35356448E-05
   8.75699967E-02   6.50762377E-05
   8.77799988E-02   7.67451784E-05
   8.79900008E-02   8.84797701E-05
   8.82000029E-02   1.00214886E-04
   8.84099975E-02   1.11883259E-04
   8.86199996E-02   1.23415899E-04
   8.88300017E-02   1.34742440E-04
   8.90400037E-02   1.45791608E-04
   8.92499983E-02   1.56491558E-04
   8.94600004E-02   1.66770435E-04
   8.96700025E-02   1.76556670E-04
   8.98799971E-02   1.85779616E-04
   9.00899991E-02   1.94369888E-04
   9.03000012E-02   2.02259864E-04
   9.05100033E-02   2.09384132E-04
   9.07199979E-02   2.15679989E-04
   9.09299999E-02   2.21087917E-04
   9.11400020E-02   2.25551863E-04
   9.13499966E-02   2.29019846E-04
   9.15599987E-02   2.31444239E-04
   9.17700008E-02   2.32782229E-04
   9.19800028E-02   2.32996099E-04
   9.21899974E-02   2.32053615E-04
   9.23999995E-02   2.29928264E-04
   9.26100016E-02   2.26599557E-04
   9.28200036E-02   2.22053175E-04
   9.30299982E-02   2.16281274E-04
   9.32400003E-02   2.09282589E-04
   9.34500024E-02   2.01062387E-04
   9.36599970E-02   1.91632746E-04
   9.38699991E-02   1.81012394E-04
   9.40800011E-02   1.69226798E-04
   9.42900032E-02   1.56307986E-04
   9.44999978E-02   1.42294462E-04
   9.47099999E-02   1.27231004E-04
   9.49200019E-02   1.11168563E-04
   9.51299965E-02   9.41638427E-05
   9.53399986E-02   7.62791606E-05
   9.55500007E-02   5.75819795E-05
   9.57600027E-02   3.81445752E-05
   9.59699973E-02   1.80436764E-05
   9.61799994E-02  -2.64001073E-06
   9.63900015E-02  -2.38223165E-05
   9.66000035E-02  -4.54160072E-05
   9.68099982E-02  -6.73313407E-05
   9.70200002E-02  -8.94766054E-05
   9.72300023E-02  -1.11758651E-04
   9.74399969E-02  -1.34083413E-04
   9.76499990E-02  -1.56356458E-04
   9.78600010E-02  -1.78483664E-04
   9.80700031E-02  -2.00371549E-04
   9.82799977E-02  -2.21927956E-04
   9.84899998E-02  -2.43062488E-04
   9.87000018E-02  -2.63687107E-04
   9.89099964E-02  -2.83716538E-04
   9.91199985E-02  -3.03068751E-04
   9.93300006E-02  -3.21665371E-04
   9.95400026E-02  -3.39432008E-04
   9.97499973E-02  -3.56298697E-04
   9.99599993E-02  -3.72200244E-04
  0.100170001      -3.87076230E-04
  0.100380003      -4.00871679E-04
  0.100589998      -4.13536734E-04
  0.100800000      -4.25027160E-04
  0.101010002      -4.35304246E-04
  0.101219997      -4.44334873E-04
  0.101429999      -4.52091510E-04
  0.101640001      -4.58552095E-04
  0.101850003      -4.63699980E-04
  0.102059998      -4.67523816E-04
  0.102270000      -4.70017199E-04
  0.102480002      -4.71178500E-04
  0.102689996      -4.71010600E-04
  0.102899998      -4.69520630E-04
  0.103110000      -4.66719444E-04
  0.103320003      -4.62621392E-04
  0.103529997      -4.57243877E-04
  0.103739999      -4.50606894E-04
  0.103950001      -4.42732766E-04
  0.104160003      -4.33645444E-04
  0.104369998      -4.23370220E-04
  0.104580000      -4.11933346E-04
  0.104790002      -3.99361365E-04
  0.104999997      -3.85680934E-04
  0.105209999      -3.70918307E-04
  0.105420001      -3.55099037E-04
  0.105630003      -3.38247482E-04
  0.105839998      -3.20386607E-04
  0.106050000      -3.01537599E-04
  0.106260002      -2.81719840E-04
  0.106470004      -2.60950415E-04
  0.106679998      -2.39244153E-04
  0.106890000      -2.16613495E-04
  0.107100002      -1.93068481E-04
  0.107309997      -1.68616752E-04
  0.107519999      -1.43263489E-04
  0.107730001      -1.17011747E-04
  0.107940003      -8.98625294E-05
  0.108149998      -6.18149934E-05
  0.108360000      -3.28668721E-05
  0.108570002      -3.01475666E-06
  0.108779997       2.77455219E-05
  0.108989999       5.94184203E-05
  0.109200001       9.20082020E-05
  0.109410003       1.25518243E-04
  0.109619997       1.59950636E-04
  0.109830000       1.95305562E-04
  0.110040002       2.31580460E-04
  0.110250004       2.68769625E-04
  0.110459998       3.06863425E-04
  0.110670000       3.45847569E-04
  0.110880002       3.85702500E-04
  0.111089997       4.26402665E-04
  0.111299999       4.67915845E-04
  0.111510001       5.10202604E-04
  0.111720003       5.53215446E-04
  0.111929998       5.96898550E-04
  0.112140000       6.41186954E-04
  0.112350002       6.86006271E-04
  0.112559997       7.31272099E-04
  0.112769999       7.76889909E-04
  0.112980001       8.22754228E-04
  0.113190003       8.68748873E-04
  0.113399997       9.14746546E-04
  0.113609999       9.60609061E-04
  0.113820001       1.00618694E-03
  0.114030004       1.05131976E-03
  0.114239998       1.09583663E-03
  0.114450000       1.13955559E-03
  0.114660002       1.18228490E-03
  0.114869997       1.22382294E-03
  0.115079999       1.26395910E-03
  0.115290001       1.30247453E-03
  0.115500003       1.33914233E-03
  0.115709998       1.37372897E-03
  0.115920000       1.40599476E-03
  0.116130002       1.43569522E-03
  0.116339996       1.46258168E-03
  0.116549999       1.48640282E-03
  0.116760001       1.50690589E-03
  0.116970003       1.52383745E-03
  0.117179997       1.53694511E-03
  0.117389999       1.54597859E-03
  0.117600001       1.55069132E-03
  0.117810003       1.55084161E-03
  0.118019998       1.54619408E-03
  0.118230000       1.53652066E-03
  0.118440002       1.52160251E-03
  0.118649997       1.50123145E-03
  0.118859999       1.47521053E-03
  0.119070001       1.44335581E-03
  0.119280003       1.40549743E-03
  0.119489998       1.36148115E-03
  0.119700000       1.31116866E-03
  0.119910002       1.25443935E-03
  0.120119996       1.19119091E-03
  0.120329998       1.12133997E-03
  0.120540000       1.04482367E-03
  0.120750003       9.61599406E-04
  0.120959997       8.71645636E-04
  0.121169999       7.74962537E-04
  0.121380001       6.71572168E-04
  0.121590003       5.61518653E-04
  0.121799998       4.44868347E-04
  0.122010000       3.21709842E-04
  0.122220002       1.92153748E-04
  0.122429997       5.63323374E-05
  0.122639999      -8.56008191E-05
  0.122850001      -2.33471044E-04
  0.123060003      -3.87083623E-04
  0.123269998      -5.46224124E-04
  0.123480000      -7.10659428E-04
  0.123690002      -8.80138425E-04
  0.123899996      -1.05439336E-03
  0.124109998      -1.23314024E-03
  0.124320000      -1.41608063E-03
  0.124530002      -1.60290219E-03
  0.124739997      -1.79328083E-03
  0.124949999      -1.98688079E-03
  0.125159994      -2.18335679E-03
  0.125369996      -2.38235481E-03
  0.125579998      -2.58351373E-03
  0.125790000      -2.78646662E-03
  0.126000002      -2.99084187E-03
  0.126210004      -3.19626508E-03
  0.126420006      -3.40235862E-03
  0.126629993      -3.60874482E-03
  0.126839995      -3.81504535E-03
  0.127049997      -4.02088417E-03
  0.127260000      -4.22588689E-03
  0.127470002      -4.42968216E-03
  0.127680004      -4.63190349E-03
  0.127890006      -4.83218767E-03
  0.128099993      -5.03017800E-03
  0.128309995      -5.22552337E-03
  0.128519997      -5.41787827E-03
  0.128729999      -5.60690463E-03
  0.128940001      -5.79227088E-03
  0.129150003      -5.97365201E-03
  0.129360005      -6.15073042E-03
  0.129570007      -6.32319460E-03
  0.129779994      -6.49073906E-03
  0.129989997      -6.65306579E-03
  0.130199999      -6.80988003E-03
  0.130410001      -6.96089491E-03
  0.130620003      -7.10582593E-03
  0.130830005      -7.24439183E-03
  0.131040007      -7.37631554E-03
  0.131249994      -7.50132231E-03
  0.131459996      -7.61913741E-03
  0.131669998      -7.72948703E-03
  0.131880000      -7.83209596E-03
  0.132090002      -7.92668574E-03
  0.132300004      -8.01297836E-03
  0.132510006      -8.09068792E-03
  0.132719994      -8.15952662E-03
  0.132929996      -8.21920112E-03
  0.133139998      -8.26940872E-03
  0.133350000      -8.30984022E-03
  0.133560002      -8.34017806E-03
  0.133770004      -8.36009532E-03
  0.133980006      -8.36925581E-03
  0.134189993      -8.36731307E-03
  0.134399995      -8.35390855E-03
  0.134609997      -8.32867529E-03
  0.134819999      -8.29123240E-03
  0.135030001      -8.24118964E-03
  0.135240003      -8.17814562E-03
  0.135450006      -8.10168777E-03
  0.135659993      -8.01139511E-03
  0.135869995      -7.90683459E-03
  0.136079997      -7.78756617E-03
  0.136289999      -7.65314419E-03
  0.136500001      -7.50311324E-03
  0.136710003      -7.33701512E-03
  0.136920005      -7.15438789E-03
  0.137130007      -6.95476867E-03
  0.137339994      -6.73769321E-03
  0.137549996      -6.50270237E-03
  0.137759998      -6.24933979E-03
  0.137970001      -5.97715797E-03
  0.138180003      -5.68571780E-03
  0.138390005      -5.37459459E-03
  0.138600007      -5.04337857E-03
  0.138809994      -4.69167763E-03
  0.139019996      -4.31912299E-03
  0.139229998      -3.92536866E-03
  0.139440000      -3.51009821E-03
  0.139650002      -3.07302689E-03
  0.139860004      -2.61390395E-03
  0.140070006      -2.13251798E-03
  0.140279993      -1.62869820E-03
  0.140489995      -1.10231969E-03
  0.140699998      -5.53305668E-04
  0.140910000       1.83685643E-05
  0.141120002       6.12672593E-04
  0.141330004       1.22951763E-03
  0.141540006       1.86875265E-03
  0.141749993       2.53016362E-03
  0.141959995       3.21346847E-03
  0.142169997       3.91831435E-03
  0.142379999       4.64427704E-03
  0.142590001       5.39085735E-03
  0.142800003       6.15747832E-03
  0.143010005       6.94348477E-03
  0.143220007       7.74814235E-03
  0.143429995       8.57063383E-03
  0.143639997       9.41005815E-03
  0.143849999       1.02654323E-02
  0.144060001       1.11356890E-02
  0.144270003       1.20196762E-02
  0.144480005       1.29161580E-02
  0.144690007       1.38238138E-02
  0.144899994       1.47412419E-02
  0.145109996       1.56669598E-02
  0.145319998       1.65994018E-02
  0.145530000       1.75369252E-02
  0.145740002       1.84778105E-02
  0.145950004       1.94202680E-02
  0.146160007       2.03624330E-02
  0.146369994       2.13023741E-02
  0.146579996       2.22380962E-02
  0.146789998       2.31675468E-02
  0.147000000       2.40886137E-02
  0.147210002       2.49991361E-02
  0.147420004       2.58969050E-02
  0.147630006       2.67796684E-02
  0.147839993       2.76451427E-02
  0.148049995       2.84910109E-02
  0.148259997       2.93149315E-02
  0.148469999       3.01145446E-02
  0.148680001       3.08874790E-02
  0.148890004       3.16313580E-02
  0.149100006       3.23438086E-02
  0.149309993       3.30224559E-02
  0.149519995       3.36649567E-02
  0.149729997       3.42689715E-02
  0.149939999       3.48322019E-02
  0.150150001       3.53523828E-02
  0.150360003       3.58272865E-02
  0.150570005       3.62547413E-02
  0.150780007       3.66326347E-02
  0.150989994       3.69589143E-02
  0.151199996       3.72316055E-02
  0.151409999       3.74488048E-02
  0.151620001       3.76086980E-02
  0.151830003       3.77095640E-02
  0.152040005       3.77497822E-02
  0.152250007       3.77278291E-02
  0.152459994       3.76422964E-02
  0.152669996       3.74918953E-02
  0.152879998       3.72754522E-02
  0.153090000       3.69919278E-02
  0.153300002       3.66404057E-02
  0.153510004       3.62201184E-02
  0.153720006       3.57304215E-02
  0.153929994       3.51708382E-02
  0.154139996       3.45410146E-02
  0.154349998       3.38407680E-02
  0.154560000       3.30700539E-02
  0.154770002       3.22289988E-02
  0.154980004       3.13178673E-02
  0.155190006       3.03370971E-02
  0.155399993       2.92872861E-02
  0.155609995       2.81691831E-02
  0.155819997       2.69836970E-02
  0.156029999       2.57319044E-02
  0.156240001       2.44150311E-02
  0.156450003       2.30344590E-02
  0.156660005       2.15917304E-02
  0.156869993       2.00885367E-02
  0.157079995       1.85267124E-02
  0.157289997       1.69082470E-02
  0.157499999       1.52352666E-02
  0.157710001       1.35100354E-02
  0.157920003       1.17349504E-02
  0.158130005       9.91253834E-03
  0.158340007       8.04544799E-03
  0.158549994       6.13644300E-03
  0.158759996       4.18839976E-03
  0.158969998       2.20429874E-03
  0.159180000       1.87217622E-04
  0.159390002      -1.85967446E-03
  0.159600005      -3.93312518E-03
  0.159810007      -6.02980377E-03
  0.160019994      -8.14631581E-03
  0.160229996      -1.02792019E-02
  0.160439998      -1.24249514E-02
  0.160650000      -1.45800095E-02
  0.160860002      -1.67407840E-02
  0.161070004      -1.89036559E-02
  0.161280006      -2.10649855E-02
  0.161489993      -2.32211221E-02
  0.161699995      -2.53684092E-02
  0.161909997      -2.75031999E-02
  0.162120000      -2.96218544E-02
  0.162330002      -3.17207612E-02
  0.162540004      -3.37963328E-02
  0.162750006      -3.58450226E-02
  0.162959993      -3.78633216E-02
  0.163169995      -3.98477837E-02
  0.163379997      -4.17950116E-02
  0.163589999      -4.37016860E-02
  0.163800001      -4.55645509E-02
  0.164010003      -4.73804399E-02
  0.164220005      -4.91462685E-02
  0.164430007      -5.08590452E-02
  0.164639995      -5.25158793E-02
  0.164849997      -5.41139841E-02
  0.165059999      -5.56506738E-02
  0.165270001      -5.71233891E-02
  0.165480003      -5.85296899E-02
  0.165690005      -5.98672517E-02
  0.165900007      -6.11338839E-02
  0.166109994      -6.23275191E-02
  0.166319996      -6.34462312E-02
  0.166529998      -6.44882396E-02
  0.166740000      -6.54518902E-02
  0.166950002      -6.63356781E-02
  0.167160004      -6.71382472E-02
  0.167370006      -6.78583905E-02
  0.167579994      -6.84950426E-02
  0.167789996      -6.90473020E-02
  0.167999998      -6.95144162E-02
  0.168210000      -6.98957741E-02
  0.168420002      -7.01909512E-02
  0.168630004      -7.03996569E-02
  0.168840006      -7.05217496E-02
  0.169049993      -7.05572739E-02
  0.169259995      -7.05064163E-02
  0.169469997      -7.03695267E-02
  0.169679999      -7.01471195E-02
  0.169890001      -6.98398650E-02
  0.170100003      -6.94486052E-02
  0.170310006      -6.89743310E-02
  0.170519993      -6.84182122E-02
  0.170729995      -6.77815601E-02
  0.170939997      -6.70658723E-02
  0.171149999      -6.62728027E-02
  0.171360001      -6.54041767E-02
  0.171570003      -6.44619688E-02
  0.171780005      -6.34483472E-02
  0.171990007      -6.23656139E-02
  0.172199994      -6.12162761E-02
  0.172409996      -6.00029938E-02
  0.172619998      -5.87285943E-02
  0.172830001      -5.73960990E-02
  0.173040003      -5.60086779E-02
  0.173250005      -5.45696728E-02
  0.173460007      -5.30826189E-02
  0.173669994      -5.15512191E-02
  0.173879996      -4.99793589E-02
  0.174089998      -4.83710840E-02
  0.174300000      -4.67306376E-02
  0.174510002      -4.50624377E-02
  0.174720004      -4.33710814E-02
  0.174930006      -4.16613482E-02
  0.175139993      -3.99381928E-02
  0.175349995      -3.82067524E-02
  0.175559998      -3.64723317E-02
  0.175770000      -3.47404294E-02
  0.175980002      -3.30167040E-02
  0.176190004      -3.13070118E-02
  0.176400006      -2.96173617E-02
  0.176609993      -2.79539246E-02
  0.176819995      -2.63230484E-02
  0.177029997      -2.47312523E-02
  0.177239999      -2.31851954E-02
  0.177450001      -2.16917004E-02
  0.177660003      -2.02577338E-02
  0.177870005      -1.88903976E-02
  0.178080007      -1.75969340E-02
  0.178289995      -1.63847115E-02
  0.178499997      -1.52611947E-02
  0.178709999      -1.42339580E-02
  0.178920001      -1.33106699E-02
  0.179130003      -1.24990828E-02
  0.179340005      -1.18070254E-02
  0.179550007      -1.12423701E-02
  0.179759994      -1.08130397E-02