   0.00000000       0.00000000    
   2.09999998E-04   0.00000000    
   4.19999997E-04   0.00000000    
   6.30000024E-04   0.00000000    
   8.39999993E-04  -2.71846801E-20
   1.04999996E-03  -2.92289181E-19
   1.26000005E-03  -1.69313408E-18
   1.47000002E-03  -7.03948734E-18
   1.67999999E-03  -2.35689912E-17
   1.88999996E-03  -6.75539877E-17
   2.09999993E-03  -1.72059311E-16
   2.30999989E-03  -3.99189687E-16
   2.52000010E-03  -8.58456775E-16
   2.73000007E-03  -1.73317203E-15
   2.94000003E-03  -3.31704180E-15
   3.15000000E-03  -6.06335110E-15
   3.35999997E-03  -1.06492582E-14
   3.56999994E-03  -1.80578005E-14
   3.77999991E-03  -2.96801395E-14
   3.99000011E-03  -4.74404045E-14
   4.19999985E-03  -7.39450615E-14
   4.41000005E-03  -1.12658153E-13
   4.61999979E-03  -1.68103256E-13
   4.82999999E-03  -2.46091342E-13
   5.04000019E-03  -3.53973307E-13
   5.24999993E-03  -5.00913872E-13
   5.46000013E-03  -6.98182072E-13
   5.66999987E-03  -9.59451594E-13
   5.88000007E-03  -1.30110029E-12
   6.08999981E-03  -1.74250078E-12
   6.30000001E-03  -2.30628472E-12
   6.51000021E-03  -3.01856695E-12
   6.71999995E-03  -3.90910871E-12
   6.93000015E-03  -5.01140188E-12
   7.13999989E-03  -6.36264565E-12
   7.35000009E-03  -8.00359432E-12
   7.55999982E-03  -9.97825260E-12
   7.77000003E-03  -1.23333826E-11
   7.98000023E-03  -1.51178063E-11
   8.19000043E-03  -1.83814648E-11
   8.39999970E-03  -2.21742225E-11
   8.60999990E-03  -2.65443986E-11
   8.82000010E-03  -3.15369605E-11
   9.03000031E-03  -3.71914791E-11
   9.23999958E-03  -4.35396927E-11
   9.44999978E-03  -5.06028205E-11
   9.65999998E-03  -5.83885371E-11
   9.87000018E-03  -6.68877523E-11
   1.00800004E-02  -7.60710453E-11
   1.02899997E-02  -8.58850074E-11
   1.04999999E-02  -9.62484537E-11
   1.07100001E-02  -1.07048599E-10
   1.09200003E-02  -1.18137319E-10
   1.11300005E-02  -1.29327535E-10
   1.13399997E-02  -1.40389991E-10
   1.15499999E-02  -1.51050589E-10
   1.17600001E-02  -1.60987959E-10
   1.19700003E-02  -1.69832204E-10
   1.21799996E-02  -1.77164644E-10
   1.23899998E-02  -1.82518362E-10
   1.26000000E-02  -1.85380336E-10
   1.28100002E-02  -1.85195220E-10
   1.30200004E-02  -1.81370571E-10
   1.32299997E-02  -1.73284331E-10
   1.34399999E-02  -1.60294014E-10
   1.36500001E-02  -1.41748197E-10
   1.38600003E-02  -1.17000409E-10
   1.40699996E-02  -8.54254653E-11
   1.42799998E-02  -4.64378050E-11
   1.44900000E-02   4.87536769E-13
   1.47000002E-02   5.57916977E-11
   1.49100004E-02   1.19806429E-10
   1.51199996E-02   1.92727112E-10
   1.53299998E-02   2.74583967E-10
   1.55400001E-02   3.65211750E-10
   1.57500003E-02   4.64218636E-10
   1.59600005E-02   5.70955061E-10
   1.61700007E-02   6.84483359E-10
   1.63800009E-02   8.03547617E-10
   1.65899992E-02   9.26545229E-10
   1.67999994E-02   1.05150200E-09
   1.70099996E-02   1.17605015E-09
   1.72199998E-02   1.29741162E-09
   1.74300000E-02   1.41238554E-09
   1.76400002E-02   1.51734336E-09
   1.78500004E-02   1.60823188E-09
   1.80600006E-02   1.68058401E-09
   1.82700008E-02   1.72954029E-09
   1.84799992E-02   1.74987980E-09
   1.86899994E-02   1.73606396E-09
   1.88999996E-02   1.68229197E-09
   1.91099998E-02   1.58256963E-09
   1.93200000E-02   1.43079126E-09
   1.95300002E-02   1.22083621E-09
   1.97400004E-02   9.46677514E-10
   1.99500006E-02   6.02508377E-10
   2.01600008E-02   1.82878185E-10
   2.03699991E-02  -3.17157828E-10
   2.05799993E-02  -9.01877295E-10
   2.07899995E-02  -1.57471625E-09
   2.09999997E-02  -2.33808817E-09
   2.12099999E-02  -3.19319748E-09
   2.14200001E-02  -4.13984669E-09
   2.16300003E-02  -5.17624077E-09
   2.18400005E-02  -6.29879615E-09
   2.20500007E-02  -7.50195195E-09
   2.22600009E-02  -8.77798900E-09
   2.24699993E-02  -1.01168656E-08
   2.26799995E-02  -1.15060663E-08
   2.28899997E-02  -1.29304709E-08
   2.30999999E-02  -1.43722527E-08
   2.33100001E-02  -1.58108087E-08
   2.35200003E-02  -1.72227139E-08
   2.37300005E-02  -1.85817264E-08
   2.39400007E-02  -1.98588452E-08
   2.41500009E-02  -2.10223909E-08
   2.43599992E-02  -2.20381562E-08
   2.45699994E-02  -2.28696173E-08
   2.47799996E-02  -2.34781901E-08
   2.49899998E-02  -2.38235671E-08
   2.52000000E-02  -2.38640947E-08
   2.54100002E-02  -2.35572433E-08
   2.56200004E-02  -2.28601120E-08
   2.58300006E-02  -2.17300222E-08
   2.60400008E-02  -2.01251673E-08
   2.62499992E-02  -1.80053128E-08
   2.64599994E-02  -1.53325743E-08
   2.66699996E-02  -1.20722214E-08
   2.68799998E-02  -8.19352675E-09
   2.70900000E-02  -3.67067088E-09
   2.73000002E-02   1.51633117E-09
   2.75100004E-02   7.38070449E-09
   2.77200006E-02   1.39279592E-08
   2.79300008E-02   2.11549711E-08
   2.81399991E-02   2.90490583E-08
   2.83499993E-02   3.75870961E-08
   2.85599995E-02   4.67347192E-08
   2.87699997E-02   5.64455291E-08
   2.89799999E-02   6.66604478E-08
   2.91900001E-02   7.73071420E-08
   2.94000003E-02   8.82995650E-08
   2.96100006E-02   9.95376652E-08
   2.98200008E-02   1.10907216E-07
   3.00299991E-02   1.22279843E-07
   3.02399993E-02   1.33513169E-07
   3.04499995E-02   1.44451278E-07
   3.06599997E-02   1.54925317E-07
   3.08699999E-02   1.64754326E-07
   3.10800001E-02   1.73746258E-07
   3.12899984E-02   1.81699377E-07
   3.15000005E-02   1.88403760E-07
   3.17099988E-02   1.93643132E-07
   3.19200009E-02   1.97196897E-07
   3.21299993E-02   1.98842443E-07
   3.23400013E-02   1.98357597E-07
   3.25499997E-02   1.95523441E-07
   3.27600017E-02   1.90127309E-07
   3.29700001E-02   1.81965760E-07
   3.31799984E-02   1.70847969E-07
   3.33900005E-02   1.56599157E-07
   3.35999988E-02   1.39064142E-07
   3.38100009E-02   1.18110854E-07
   3.40199992E-02   9.36339930E-08
   3.42300013E-02   6.55587868E-08
   3.44399996E-02   3.38443726E-08
   3.46500017E-02  -1.51266832E-09
   3.48600000E-02  -4.04749585E-08
   3.50699984E-02  -8.29612290E-08
   3.52800004E-02  -1.28843453E-07
   3.54899988E-02  -1.77944258E-07
   3.57000008E-02  -2.30034814E-07
   3.59099992E-02  -2.84832964E-07
   3.61200012E-02  -3.42001812E-07
   3.63299996E-02  -4.01149151E-07
   3.65400016E-02  -4.61826971E-07
   3.67500000E-02  -5.23531867E-07
   3.69599983E-02  -5.85706118E-07
   3.71700004E-02  -6.47739171E-07
   3.73799987E-02  -7.08970219E-07
   3.75900008E-02  -7.68691223E-07
   3.77999991E-02  -8.26150483E-07
   3.80100012E-02  -8.80557764E-07
   3.82199995E-02  -9.31089289E-07
   3.84300016E-02  -9.76893830E-07
   3.86399999E-02  -1.01709986E-06
   3.88499983E-02  -1.05082268E-06
   3.90600003E-02  -1.07717301E-06
   3.92699987E-02  -1.09526559E-06
   3.94800007E-02  -1.10422889E-06
   3.96899991E-02  -1.10321480E-06
   3.99000011E-02  -1.09140933E-06
   4.01099995E-02  -1.06804316E-06
   4.03200015E-02  -1.03240245E-06
   4.05299999E-02  -9.83840323E-07
   4.07399982E-02  -9.21788740E-07
   4.09500003E-02  -8.45768454E-07
   4.11599986E-02  -7.55400890E-07
   4.13700007E-02  -6.50418826E-07
   4.15799990E-02  -5.30676857E-07
   4.17900011E-02  -3.96160743E-07
   4.19999994E-02  -2.46996962E-07
   4.22100015E-02  -8.34608969E-08
   4.24199998E-02   9.40160092E-08
   4.26299982E-02   2.84839274E-07
   4.28400002E-02   4.88246940E-07
   4.30499986E-02   7.03305545E-07
   4.32600006E-02   9.28907696E-07
   4.34699990E-02   1.16377169E-06
   4.36800011E-02   1.40644136E-06
   4.38899994E-02   1.65528934E-06
   4.41000015E-02   1.90852120E-06
   4.43099998E-02   2.16418107E-06
   4.45200019E-02   2.42016063E-06
   4.47300002E-02   2.67420751E-06
   4.49399985E-02   2.92393861E-06
   4.51500006E-02   3.16685237E-06
   4.53599989E-02   3.40034467E-06
   4.55700010E-02   3.62172682E-06
   4.57799993E-02   3.82824419E-06
   4.59900014E-02   4.01709576E-06
   4.61999997E-02   4.18545733E-06
   4.64100018E-02   4.33050673E-06
   4.66200002E-02   4.44944590E-06
   4.68299985E-02   4.53952680E-06
   4.70400006E-02   4.59808098E-06
   4.72499989E-02   4.62254548E-06
   4.74600010E-02   4.61049058E-06
   4.76699993E-02   4.55964846E-06
   4.78800014E-02   4.46794320E-06
   4.80899997E-02   4.33351624E-06
   4.83000018E-02   4.15475643E-06
   4.85100001E-02   3.93032406E-06
   4.87199984E-02   3.65918163E-06
   4.89300005E-02   3.34061428E-06
   4.91399989E-02   2.97425504E-06
   4.93500009E-02   2.56010480E-06
   4.95599993E-02   2.09855398E-06
   4.97700013E-02   1.59039701E-06
   4.99799997E-02   1.03684874E-06
   5.01900017E-02   4.39556629E-07
   5.04000001E-02  -1.99392076E-07
   5.06099984E-02  -8.77464458E-07
   5.08200005E-02  -1.59167882E-06
   5.10299988E-02  -2.33860646E-06
   5.12400009E-02  -3.11437611E-06
   5.14499992E-02  -3.91468166E-06
   5.16600013E-02  -4.73479531E-06
   5.18699996E-02  -5.56958503E-06
   5.20800017E-02  -6.41352972E-06
   5.22900000E-02  -7.26074995E-06
   5.24999984E-02  -8.10503025E-06
   5.27100004E-02  -8.93985271E-06
   5.29199988E-02  -9.75843250E-06
   5.31300008E-02  -1.05537538E-05
   5.33399992E-02  -1.13186115E-05
   5.35500012E-02  -1.20456616E-05
   5.37599996E-02  -1.27274634E-05
   5.39700016E-02  -1.33565309E-05
   5.41800000E-02  -1.39253898E-05
   5.43899983E-02  -1.44266251E-05
   5.46000004E-02  -1.48529471E-05
   5.48099987E-02  -1.51972417E-05
   5.50200008E-02  -1.54526351E-05
   5.52299991E-02  -1.56125498E-05
   5.54400012E-02  -1.56707665E-05
   5.56499995E-02  -1.56214901E-05
   5.58600016E-02  -1.54593963E-05
   5.60699999E-02  -1.51797058E-05
   5.62799983E-02  -1.47782239E-05
   5.64900003E-02  -1.42514173E-05
   5.66999987E-02  -1.35964474E-05
   5.69100007E-02  -1.28112333E-05
   5.71199991E-02  -1.18944972E-05
   5.73300011E-02  -1.08458053E-05
   5.75399995E-02  -9.66560856E-06
   5.77500015E-02  -8.35528135E-06
   5.79599999E-02  -6.91715195E-06
   5.81699982E-02  -5.35452727E-06
   5.83800003E-02  -3.67171310E-06
   5.85899986E-02  -1.87403521E-06
   5.88000007E-02   3.21610116E-08
   5.90099990E-02   2.03950094E-06
   5.92200011E-02   4.13958242E-06
   5.94299994E-02   6.32299316E-06
   5.96400015E-02   8.57932173E-06
   5.98499998E-02   1.08971826E-05
   6.00599982E-02   1.32642508E-05
   6.02700002E-02   1.56672977E-05
   6.04799986E-02   1.80922343E-05
   6.06900007E-02   2.05241686E-05
   6.08999990E-02   2.29474608E-05
   6.11100011E-02   2.53457983E-05
   6.13199994E-02   2.77022609E-05
   6.15300015E-02   2.99994063E-05
   6.17399998E-02   3.22193628E-05
   6.19499981E-02   3.43439169E-05
   6.21600002E-02   3.63546133E-05
   6.23699985E-02   3.82328726E-05
   6.25799969E-02   3.99600867E-05
   6.27899989E-02   4.15177565E-05
   6.30000010E-02   4.28875865E-05
   6.32100031E-02   4.40516415E-05
   6.34199977E-02   4.49924592E-05
   6.36299998E-02   4.56931884E-05
   6.38400018E-02   4.61377203E-05
   6.40499964E-02   4.63108190E-05
   6.42599985E-02   4.61982745E-05
   6.44700006E-02   4.57870337E-05
   6.46800026E-02   4.50653388E-05
   6.48899972E-02   4.40228578E-05
   6.50999993E-02   4.26508268E-05
   6.53100014E-02   4.09421627E-05
   6.55200034E-02   3.88916160E-05
   6.57299981E-02   3.64958687E-05
   6.59400001E-02   3.37536585E-05
   6.61500022E-02   3.06658767E-05
   6.63599968E-02   2.72356720E-05
   6.65699989E-02   2.34685394E-05
   6.67800009E-02   1.93723881E-05
   6.69900030E-02   1.49576144E-05
   6.71999976E-02   1.02371596E-05
   6.74099997E-02   5.22653772E-06
   6.76200017E-02  -5.61386315E-08
   6.78299963E-02  -5.59014597E-06
   6.80399984E-02  -1.13521510E-05
   6.82500005E-02  -1.73162553E-05
   6.84600025E-02  -2.34540348E-05
   6.86699972E-02  -2.97346014E-05
   6.88799992E-02  -3.61246821E-05
   6.90900013E-02  -4.25887338E-05
   6.93000033E-02  -4.90890488E-05
   6.95099980E-02  -5.55859369E-05
   6.97200000E-02  -6.20378560E-05
   6.99300021E-02  -6.84016122E-05
   7.01399967E-02  -7.46325750E-05
   7.03499988E-02  -8.06849130E-05
   7.05600008E-02  -8.65118200E-05
   7.07700029E-02  -9.20657913E-05
   7.09799975E-02  -9.72989292E-05
   7.11899996E-02  -1.02163227E-04
   7.14000016E-02  -1.06610911E-04
   7.16100037E-02  -1.10594730E-04
   7.18199983E-02  -1.14068360E-04
   7.20300004E-02  -1.16986739E-04
   7.22400025E-02  -1.19306409E-04
   7.24499971E-02  -1.20985926E-04
   7.26599991E-02  -1.21986217E-04
   7.28700012E-02  -1.22270983E-04
   7.30800033E-02  -1.21807047E-04
   7.32899979E-02  -1.20564735E-04
   7.34999999E-02  -1.18518285E-04
   7.37100020E-02  -1.15646137E-04
   7.39199966E-02  -1.11931316E-04
   7.41299987E-02  -1.07361739E-04
   7.43400007E-02  -1.01930535E-04
   7.45500028E-02  -9.56363292E-05
   7.47599974E-02  -8.84835099E-05
   7.49699995E-02  -8.04823794E-05
   7.51800016E-02  -7.16494615E-05
   7.53900036E-02  -6.20075516E-05
   7.55999982E-02  -5.15858919E-05
   7.58100003E-02  -4.04202146E-05
   7.60200024E-02  -2.85527894E-05
   7.62299970E-02  -1.60323798E-05
   7.64399990E-02  -2.91418883E-06
   7.66500011E-02   1.07402175E-05
   7.68600032E-02   2.48631695E-05
   7.70699978E-02   3.93810769E-05
   7.72799999E-02   5.42146845E-05
   7.74900019E-02   6.92794420E-05
   7.76999965E-02   8.44858878E-05
   7.79099986E-02   9.97400930E-05
   7.81200007E-02   1.14944138E-04
   7.83300027E-02   1.29996668E-04
   7.85399973E-02   1.44793492E-04
   7.87499994E-02   1.59228206E-04
   7.89600015E-02   1.73192893E-04
   7.91700035E-02   1.86578851E-04
   7.93799981E-02   1.99277289E-04
   7.95900002E-02   2.11180246E-04
   7.98000023E-02   2.22181246E-04
   8.00099969E-02   2.32176200E-04
   8.02199990E-02   2.41064292E-04
   8.04300010E-02   2.48748780E-04
   8.06400031E-02   2.55137827E-04
   8.08499977E-02   2.60145374E-04
   8.10599998E-02   2.63692054E-04
   8.12700018E-02   2.65705865E-04
   8.14799964E-02   2.66123068E-04
   8.16899985E-02   2.64888862E-04
   8.19000006E-02   2.61958136E-04
   8.21100026E-02   2.57296109E-04
   8.23199973E-02   2.50878977E-04
   8.25299993E-02   2.42694456E-04
   8.27400014E-02   2.32742095E-04
   8.29500034E-02   2.21033886E-04
   8.31599981E-02   2.07594479E-04
   8.33700001E-02   1.92461375E-04
   8.35800022E-02   1.75685098E-04
   8.37899968E-02   1.57329181E-04
   8.39999989E-02   1.37470168E-04
   8.42100009E-02   1.16197385E-04
   8.44200030E-02   9.36127253E-05
   8.46299976E-02   6.98301155E-05
   8.48399997E-02   4.49752188E-05
   8.50500017E-02   1.91847557E-05
   8.52599964E-02  -7.39421876E-06
   8.54699984E-02  -3.46050911E-05
   8.56800005E-02  -6.22826556E-05
   8.58900025E-02  -9.02540050E-05
   8.60999972E-02  -1.18339645E-04
   8.63099992E-02  -1.46354665E-04
   8.65200013E-02  -1.74110028E-04
   8.67300034E-02  -2.01413830E-04
   8.69399980E-02  -2.28072706E-04
   8.71500000E-02  -2.53893202E-04
   8.73600021E-02  -2.78683234E-04
   8.75699967E-02  -3.02253582E-04
   8.77799988E-02  -3.24419409E-04
   8.79900008E-02  -3.45001783E-04
   8.82000029E-02  -3.63828993E-04
   8.84099975E-02  -3.80738289E-04
   8.86199996E-02  -3.95577168E-04
   8.88300017E-02  -4.08204651E-04
   8.90400037E-02  -4.18492855E-04
   8.92499983E-02  -4.26328101E-04
   8.94600004E-02  -4.31612134E-04
   8.96700025E-02  -4.34263115E-04
   8.98799971E-02  -4.34216752E-04
   9.00899991E-02  -4.31426975E-04
   9.03000012E-02  -4.25866718E-04
   9.05100033E-02  -4.17528528E-04
   9.07199979E-02  -4.06424952E-04
   9.09299999E-02  -3.92588903E-04
   9.11400020E-02  -3.76073614E-04
   9.13499966E-02  -3.56952776E-04
   9.15599987E-02  -3.35320277E-04
   9.17700008E-02  -3.11289768E-04
   9.19800028E-02  -2.84994196E-04
   9.21899974E-02  -2.56584986E-04
   9.23999995E-02  -2.26231219E-04
   9.26100016E-02  -1.94118606E-04
   9.28200036E-02  -1.60448282E-04
   9.30299982E-02  -1.25435487E-04
   9.32400003E-02  -8.93079923E-05
   9.34500024E-02  -5.23046147E-05
   9.36599970E-02  -1.46733792E-05
   9.38699991E-02   2.33303326E-05
   9.40800011E-02   6.14455566E-05
   9.42900032E-02   9.94079601E-05
   9.44999978E-02   1.36951814E-04
   9.47099999E-02   1.73812077E-04
   9.49200019E-02   2.09726568E-04
   9.51299965E-02   2.44438037E-04
   9.53399986E-02   2.77696468E-04
   9.55500007E-02   3.09261057E-04
   9.57600027E-02   3.38902319E-04
   9.59699973E-02   3.66404012E-04
   9.61799994E-02   3.91565176E-04
   9.63900015E-02   4.14201786E-04
   9.66000035E-02   4.34148504E-04
   9.68099982E-02   4.51260217E-04
   9.70200002E-02   4.65413468E-04
   9.72300023E-02   4.76507557E-04
   9.74399969E-02   4.84465651E-04
   9.76499990E-02   4.89235623E-04
   9.78600010E-02   4.90790640E-04
   9.80700031E-02   4.89129743E-04
   9.82799977E-02   4.84277727E-04
   9.84899998E-02   4.76285495E-04
   9.87000018E-02   4.65229445E-04
   9.89099964E-02   4.51211177E-04
   9.91199985E-02   4.34356800E-04
   9.93300006E-02   4.14815906E-04
   9.95400026E-02   3.92760354E-04
   9.97499973E-02   3.68382985E-04
   9.99599993E-02   3.41896026E-04
  0.100170001       3.13529221E-04
  0.100380003       2.83527945E-04
  0.100589998       2.52151018E-04
  0.100800000       2.19668524E-04
  0.101010002       1.86359364E-04
  0.101219997       1.52508772E-04
  0.101429999       1.18405551E-04
  0.101640001       8.43396556E-05
  0.101850003       5.05993594E-05
  0.102059998       1.74685119E-05
  0.102270000      -1.47760911E-05
  0.102480002      -4.58674258E-05
  0.102689996      -7.55508299E-05
  0.102899998      -1.03586586E-04
  0.103110000      -1.29752341E-04
  0.103320003      -1.53845220E-04
  0.103529997      -1.75684254E-04
  0.103739999      -1.95112123E-04
  0.103950001      -2.11996972E-04
  0.104160003      -2.26233926E-04
  0.104369998      -2.37746324E-04
  0.104580000      -2.46486801E-04
  0.104790002      -2.52438156E-04
  0.104999997      -2.55613704E-04
  0.105209999      -2.56057509E-04
  0.105420001      -2.53844337E-04
  0.105630003      -2.49079254E-04
  0.105839998      -2.41896836E-04
  0.106050000      -2.32460385E-04
  0.106260002      -2.20960457E-04
  0.106470004      -2.07613382E-04
  0.106679998      -1.92659383E-04
  0.106890000      -1.76360481E-04
  0.107100002      -1.58998067E-04
  0.107309997      -1.40870427E-04
  0.107519999      -1.22289784E-04
  0.107730001      -1.03579448E-04
  0.107940003      -8.50705910E-05
  0.108149998      -6.70989757E-05
  0.108360000      -5.00014503E-05
  0.108570002      -3.41124542E-05
  0.108779997      -1.97605168E-05
  0.108989999      -7.26472990E-06
  0.109200001       3.06884704E-06
  0.109410003       1.09508401E-05
  0.109619997       1.61117641E-05
  0.109830000       1.83055399E-05
  0.110040002       1.73126900E-05
  0.110250004       1.29432274E-05
  0.110459998       5.03961428E-06
  0.110670000      -6.52077870E-06
  0.110880002      -2.18233199E-05
  0.111089997      -4.09138884E-05
  0.111299999      -6.37973499E-05
  0.111510001      -9.04361659E-05
  0.111720003      -1.20749064E-04
  0.111929998      -1.54610490E-04
  0.112140000      -1.91850297E-04
  0.112350002      -2.32253835E-04
  0.112559997      -2.75562314E-04
  0.112769999      -3.21473548E-04
  0.112980001      -3.69643385E-04
  0.113190003      -4.19687334E-04
  0.113399997      -4.71182371E-04
  0.113609999      -5.23669529E-04
  0.113820001      -5.76656486E-04
  0.114030004      -6.29620743E-04
  0.114239998      -6.82013109E-04
  0.114450000      -7.33261288E-04
  0.114660002      -7.82774237E-04
  0.114869997      -8.29945900E-04
  0.115079999      -8.74159974E-04
  0.115290001      -9.14794800E-04
  0.115500003      -9.51228023E-04
  0.115709998      -9.82841593E-04
  0.115920000      -1.00902654E-03
  0.116130002      -1.02918898E-03
  0.116339996      -1.04275404E-03
  0.116549999      -1.04917190E-03
  0.116760001      -1.04792241E-03
  0.116970003      -1.03852036E-03
  0.117179997      -1.02052011E-03
  0.117389999      -9.93520254E-04
  0.117600001      -9.57167766E-04
  0.117810003      -9.11162759E-04
  0.118019998      -8.55262391E-04
  0.118230000      -7.89284124E-04
  0.118440002      -7.13108806E-04
  0.118649997      -6.26684341E-04
  0.118859999      -5.30027668E-04
  0.119070001      -4.23226680E-04
  0.119280003      -3.06442758E-04
  0.119489998      -1.79911469E-04
  0.119700000      -4.39434298E-05
  0.119910002       1.01075158E-04
  0.120119996       2.54682789E-04
  0.120329998       4.16343100E-04
  0.120540000       5.85445785E-04
  0.120750003       7.61308300E-04
  0.120959997       9.43177729E-04
  0.121169999       1.13023340E-03
  0.121380001       1.32158934E-03
  0.121590003       1.51629781E-03
  0.121799998       1.71335263E-03
  0.122010000       1.91169372E-03
  0.122220002       2.11021095E-03
  0.122429997       2.30774889E-03
  0.122639999       2.50311219E-03
  0.122850001       2.69507105E-03
  0.123060003       2.88236630E-03
  0.123269998       3.06371506E-03
  0.123480000       3.23781651E-03
  0.123690002       3.40335933E-03
  0.123899996       3.55902640E-03
  0.124109998       3.70350154E-03
  0.124320000       3.83547693E-03
  0.124530002       3.95365758E-03
  0.124739997       4.05676942E-03
  0.124949999       4.14356543E-03
  0.125159994       4.21283068E-03
  0.125369996       4.26338986E-03
  0.125579998       4.29411279E-03
  0.125790000       4.30392008E-03
  0.126000002       4.29179054E-03
  0.126210004       4.25676396E-03
  0.126420006       4.19794861E-03
  0.126629993       4.11452586E-03
  0.126839995       4.00575483E-03
  0.127049997       3.87097755E-03
  0.127260000       3.70962173E-03
  0.127470002       3.52120656E-03
  0.127680004       3.30534531E-03
  0.127890006       3.06174881E-03
  0.128099993       2.79022963E-03
  0.128309995       2.49070348E-03
  0.128519997       2.16319133E-03
  0.128729999       1.80782331E-03
  0.128940001       1.42483844E-03
  0.129150003       1.01458689E-03
  0.129360005       5.77531231E-04
  0.129570007       1.14246555E-04
  0.129779994      -3.74579424E-04
  0.129989997      -8.88145703E-04
  0.130199999      -1.42553844E-03
  0.130410001      -1.98573200E-03
  0.130620003      -2.56758952E-03
  0.130830005      -3.16986535E-03
  0.131040007      -3.79120628E-03
  0.131249994      -4.43015248E-03
  0.131459996      -5.08514093E-03
  0.131669998      -5.75450761E-03
  0.131880000      -6.43649045E-03
  0.132090002      -7.12923380E-03
  0.132300004      -7.83079024E-03
  0.132510006      -8.53912532E-03
  0.132719994      -9.25212260E-03
  0.132929996      -9.96758603E-03
  0.133139998      -1.06832469E-02
  0.133350000      -1.13967676E-02
  0.133560002      -1.21057453E-02
  0.133770004      -1.28077241E-02
  0.133980006      -1.35001941E-02
  0.134189993      -1.41805988E-02
  0.134399995      -1.48463435E-02
  0.134609997      -1.54948020E-02
  0.134819999      -1.61233190E-02
  0.135030001      -1.67292245E-02
  0.135240003      -1.73098389E-02
  0.135450006      -1.78624745E-02
  0.135659993      -1.83844529E-02
  0.135869995      -1.88731048E-02
  0.136079997      -1.93257835E-02
  0.136289999      -1.97398700E-02
  0.136500001      -2.01127883E-02
  0.136710003      -2.04419978E-02
  0.136920005      -2.07250230E-02
  0.137130007      -2.09594462E-02
  0.137339994      -2.11429261E-02
  0.137549996      -2.12731995E-02
  0.137759998      -2.13480964E-02
  0.137970001      -2.13655438E-02
  0.138180003      -2.13235784E-02
  0.138390005      -2.12203506E-02
  0.138600007      -2.10541412E-02
  0.138809994      -2.08233558E-02
  0.139019996      -2.05265507E-02
  0.139229998      -2.01624259E-02
  0.139440000      -1.97298415E-02
  0.139650002      -1.92278251E-02
  0.139860004      -1.86555684E-02
  0.140070006      -1.80124473E-02
  0.140279993      -1.72980204E-02
  0.140489995      -1.65120363E-02
  0.140699998      -1.56544410E-02
  0.140910000      -1.47253778E-02
  0.141120002      -1.37252016E-02
  0.141330004      -1.26544712E-02
  0.141540006      -1.15139568E-02
  0.141749993      -1.03046428E-02
  0.141959995      -9.02773254E-03
  0.142169997      -7.68464524E-03
  0.142379999      -6.27701869E-03
  0.142590001      -4.80670715E-03
  0.142800003      -3.27578280E-03
  0.143010005      -1.68653356E-03
  0.143220007      -4.14615097E-05
  0.143429995       1.65672181E-03
  0.143639997       3.40509787E-03
  0.143849999       5.20054530E-03
  0.144060001       7.03974534E-03
  0.144270003       8.91918503E-03
  0.144480005       1.08351680E-02
  0.144690007       1.27838170E-02
  0.144899994       1.47610828E-02
  0.145109996       1.67627521E-02
  0.145319998       1.87844560E-02
  0.145530000       2.08216775E-02
  0.145740002       2.28697620E-02
  0.145950004       2.49239281E-02
  0.146160007       2.69792788E-02
  0.146369994       2.90308055E-02
  0.146579996       3.10734008E-02
  0.146789998       3.31018753E-02
  0.147000000       3.51109616E-02
  0.147210002       3.70953232E-02
  0.147420004       3.90495770E-02
  0.147630006       4.09682952E-02
  0.147839993       4.28460129E-02
  0.148049995       4.46772538E-02
  0.148259997       4.64565195E-02
  0.148469999       4.81783189E-02
  0.148680001       4.98371758E-02
  0.148890004       5.14276288E-02
  0.149100006       5.29442392E-02
  0.149309993       5.43816164E-02
  0.149519995       5.57344109E-02
  0.149729997       5.69973364E-02
  0.149939999       5.81651591E-02
  0.150150001       5.92327341E-02
  0.150360003       6.01949878E-02
  0.150570005       6.10469282E-02
  0.150780007       6.17836602E-02
  0.150989994       6.24003783E-02
  0.151199996       6.28923848E-02
  0.151409999       6.32550791E-02
  0.151620001       6.34839758E-02
  0.151830003       6.35747164E-02
  0.152040005       6.35230243E-02
  0.152250007       6.33247793E-02
  0.152459994       6.29759580E-02
  0.152669996       6.24726601E-02
  0.152879998       6.18111193E-02
  0.153090000       6.09876849E-02
  0.153300002       5.99988326E-02
  0.153510004       5.88411652E-02
  0.153720006       5.75114004E-02
  0.153929994       5.60063906E-02
  0.154139996       5.43230996E-02
  0.154349998       5.24586216E-02
  0.154560000       5.04101701E-02
  0.154770002       4.81750742E-02
  0.154980004       4.57507819E-02
  0.155190006       4.31348607E-02
  0.155399993       4.03249934E-02
  0.155609995       3.73189896E-02
  0.155819997       3.41147557E-02
  0.156029999       3.07103284E-02
  0.156240001       2.71038488E-02
  0.156450003       2.32935715E-02
  0.156660005       1.92778669E-02
  0.156869993       1.50552168E-02
  0.157079995       1.06242085E-02
  0.157289997       5.98355476E-03
  0.157499999       1.13208615E-03
  0.157710001      -3.93126626E-03
  0.157920003      -9.20743309E-03
  0.158130005      -1.46972286E-02
  0.158340007      -2.04013623E-02
  0.158549994      -2.63204072E-02
  0.158759996      -3.24548110E-02
  0.158969998      -3.88048775E-02
  0.159180000      -4.53707762E-02
  0.159390002      -5.21525703E-02
  0.159600005      -5.91501445E-02
  0.159810007      -6.63632527E-02
  0.160019994      -7.37914965E-02
  0.160229996      -8.14343244E-02
  0.160439998      -8.92910287E-02
  0.160650000      -9.73607078E-02
  0.160860002     -0.105642341    
  0.161070004     -0.114134699    
  0.161280006     -0.122836389    
  0.161489993     -0.131745815    
  0.161699995     -0.140861213    
  0.161909997     -0.150180638    
  0.162120000     -0.159701899    
  0.162330002     -0.169422641    
  0.162540004     -0.179340348    
  0.162750006     -0.189452246    
  0.162959993     -0.199755341    
  0.163169995     -0.210246459    
  0.163379997     -0.220922217    
  0.163589999     -0.231778994    
  0.163800001     -0.242812991    
  0.164010003     -0.254020184    
  0.164220005     -0.265396297    
  0.164430007     -0.276936948    
  0.164639995     -0.288637429    
  0.164849997     -0.300492883    
  0.165059999     -0.312498212    
  0.165270001     -0.324648201    
  0.165480003     -0.336937368    
  0.165690005     -0.349360049    
  0.165900007     -0.361910462    
  0.166109994     -0.374582589    
  0.166319996     -0.387370259    
  0.166529998     -0.400267154    
  0.166740000     -0.413266838    
  0.166950002     -0.426362693    
  0.167160004     -0.439548016    
  0.167370006     -0.452815950    
  0.167579994     -0.466159582    
  0.167789996     -0.479571819    
  0.167999998     -0.493045658    
  0.168210000     -0.506573856    
  0.168420002     -0.520149231    
  0.168630004     -0.533764541    
  0.168840006     -0.547412515    
  0.169049993     -0.561085880    
  0.169259995     -0.574777424    
  0.169469997     -0.588479877    
  0.169679999     -0.602186143    
  0.169890001     -0.615889013    
  0.170100003     -0.629581451    
  0.170310006     -0.643256485    
  0.170519993     -0.656907439    
  0.170729995     -0.670527458    
  0.170939997     -0.684109986    
  0.171149999     -0.697648585    
  0.171360001     -0.711136997    
  0.171570003     -0.724569142    
  0.171780005     -0.737939119    
  0.171990007     -0.751241267    
  0.172199994     -0.764470100    
  0.172409996     -0.777620316    
  0.172619998     -0.790687025    
  0.172830001     -0.803665519    
  0.173040003     -0.816551149    
  0.173250005     -0.829339802    
  0.173460007     -0.842027605    
  0.173669994     -0.854610860    
  0.173879996     -0.867086172    
  0.174089998     -0.879450440    
  0.174300000     -0.891700864    
  0.174510002     -0.903834939    
  0.174720004     -0.915850580    
  0.174930006     -0.927745819    
  0.175139993     -0.939519048    
  0.175349995     -0.951169014    
  0.175559998     -0.962694764    
  0.175770000     -0.974095464    
  0.175980002     -0.985370636    
  0.176190004     -0.996520102    
  0.176400006      -1.00754416    
  0.176609993      -1.01844311    
  0.176819995      -1.02921748    
  0.177029997      -1.03986824    
  0.177239999      -1.05039656    
  0.177450001      -1.06080365    
  0.177660003      -1.07109106    
  0.177870005      -1.08126068    
  0.178080007      -1.09131444    
  0.178289995      -1.10125446    
  0.178499997      -1.11108291    
  0.178709999      -1.12080252    
  0.178920001      -1.13041580    
  0.179130003      -1.13992524    
  0.179340005      -1.14933395    
  0.179550007      -1.15864456    
  0.179759994      -1.16786039    