   0.00000000       0.00000000    
   2.09999998E-04   0.00000000    
   4.19999997E-04   0.00000000    
   6.30000024E-04   0.00000000    
   8.39999993E-04  -9.20166384E-18
   1.04999996E-03  -1.07458378E-16
   1.26000005E-03  -6.65788067E-16
   1.47000002E-03  -2.92380929E-15
   1.67999999E-03  -1.02362077E-14
   1.88999996E-03  -3.04323996E-14
   2.09999993E-03  -7.98770162E-14
   2.30999989E-03  -1.89965732E-13
   2.52000010E-03  -4.16933632E-13
   2.73000007E-03  -8.55981789E-13
   2.94000003E-03  -1.66083466E-12
   3.15000000E-03  -3.06991303E-12
   3.35999997E-03  -5.44034175E-12
   3.56999994E-03  -9.29099679E-12
   3.77999991E-03  -1.53557063E-11
   3.99000011E-03  -2.46476051E-11
   4.19999985E-03  -3.85354318E-11
   4.41000005E-03  -5.88322169E-11
   4.61999979E-03  -8.78965303E-11
   4.82999999E-03  -1.28746055E-10
   5.04000019E-03  -1.85182494E-10
   5.24999993E-03  -2.61926703E-10
   5.46000013E-03  -3.64761721E-10
   5.66999987E-03  -5.00681163E-10
   5.88000007E-03  -6.78039513E-10
   6.08999981E-03  -9.06700326E-10
   6.30000001E-03  -1.19817656E-09
   6.51000021E-03  -1.56575852E-09
   6.71999995E-03  -2.02462136E-09
   6.93000015E-03  -2.59190669E-09
   7.13999989E-03  -3.28676908E-09
   7.35000009E-03  -4.13038004E-09
   7.55999982E-03  -5.14588017E-09
   7.77000003E-03  -6.35826991E-09
   7.98000023E-03  -7.79423193E-09
   8.19000043E-03  -9.48187395E-09
   8.39999970E-03  -1.14503846E-08
   8.60999990E-03  -1.37295926E-08
   8.82000010E-03  -1.63494214E-08
   9.03000031E-03  -1.93392395E-08
   9.23999958E-03  -2.27270949E-08
   9.44999978E-03  -2.65388209E-08
   9.65999998E-03  -3.07970431E-08
   9.87000018E-03  -3.55200598E-08
   1.00800004E-02  -4.07205718E-08
   1.02899997E-02  -4.64043737E-08
   1.04999999E-02  -5.25688790E-08
   1.07100001E-02  -5.92015788E-08
   1.09200003E-02  -6.62784316E-08
   1.11300005E-02  -7.37621875E-08
   1.13399997E-02  -8.16006818E-08
   1.15499999E-02  -8.97251269E-08
   1.17600001E-02  -9.80483676E-08
   1.19700003E-02  -1.06463304E-07
   1.21799996E-02  -1.14841271E-07
   1.23899998E-02  -1.23030603E-07
   1.26000000E-02  -1.30855426E-07
   1.28100002E-02  -1.38114530E-07
   1.30200004E-02  -1.44580596E-07
   1.32299997E-02  -1.49999678E-07
   1.34399999E-02  -1.54091069E-07
   1.36500001E-02  -1.56547543E-07
   1.38600003E-02  -1.57036027E-07
   1.40699996E-02  -1.55198862E-07
   1.42799998E-02  -1.50655424E-07
   1.44900000E-02  -1.43004499E-07
   1.47000002E-02  -1.31827193E-07
   1.49100004E-02  -1.16690451E-07
   1.51199996E-02  -9.71513145E-08
   1.53299998E-02  -7.27618854E-08
   1.55400001E-02  -4.30748841E-08
   1.57500003E-02  -7.65005304E-09
   1.59600005E-02   3.39388642E-08
   1.61700007E-02   8.20964132E-08
   1.63800009E-02   1.37197020E-07
   1.65899992E-02   1.99576093E-07
   1.67999994E-02   2.69520484E-07
   1.70099996E-02   3.47258521E-07
   1.72199998E-02   4.32949605E-07
   1.74300000E-02   5.26673375E-07
   1.76400002E-02   6.28419002E-07
   1.78500004E-02   7.38074107E-07
   1.80600006E-02   8.55413873E-07
   1.82700008E-02   9.80090135E-07
   1.84799992E-02   1.11162160E-06
   1.86899994E-02   1.24938344E-06
   1.88999996E-02   1.39259805E-06
   1.91099998E-02   1.54032784E-06
   1.93200000E-02   1.69146711E-06
   1.95300002E-02   1.84473652E-06
   1.97400004E-02   1.99867895E-06
   1.99500006E-02   2.15165664E-06
   2.01600008E-02   2.30185060E-06
   2.03699991E-02   2.44726198E-06
   2.05799993E-02   2.58571481E-06
   2.07899995E-02   2.71486351E-06
   2.09999997E-02   2.83219993E-06
   2.12099999E-02   2.93506491E-06
   2.14200001E-02   3.02066246E-06
   2.16300003E-02   3.08607696E-06
   2.18400005E-02   3.12829275E-06
   2.20500007E-02   3.14421709E-06
   2.22600009E-02   3.13070586E-06
   2.24699993E-02   3.08459244E-06
   2.26799995E-02   3.00271995E-06
   2.28899997E-02   2.88197498E-06
   2.30999999E-02   2.71932618E-06
   2.33100001E-02   2.51186179E-06
   2.35200003E-02   2.25683380E-06
   2.37300005E-02   1.95169946E-06
   2.39400007E-02   1.59416834E-06
   2.41500009E-02   1.18224818E-06
   2.43599992E-02   7.14292185E-07
   2.45699994E-02   1.89047427E-07
   2.47799996E-02  -3.94297814E-07
   2.49899998E-02  -1.03606737E-06
   2.52000000E-02  -1.73605088E-06
   2.54100002E-02  -2.49345862E-06
   2.56200004E-02  -3.30688135E-06
   2.58300006E-02  -4.17425144E-06
   2.60400008E-02  -5.09280562E-06
   2.62499992E-02  -6.05905552E-06
   2.64599994E-02  -7.06876199E-06
   2.66699996E-02  -8.11691098E-06
   2.68799998E-02  -9.19770264E-06
   2.70900000E-02  -1.03045431E-05
   2.73000002E-02  -1.14300383E-05
   2.75100004E-02  -1.25660072E-05
   2.77200006E-02  -1.37034958E-05
   2.79300008E-02  -1.48327954E-05
   2.81399991E-02  -1.59434803E-05
   2.83499993E-02  -1.70244439E-05
   2.85599995E-02  -1.80639581E-05
   2.87699997E-02  -1.90497267E-05
   2.89799999E-02  -1.99689566E-05
   2.91900001E-02  -2.08084402E-05
   2.94000003E-02  -2.15546388E-05
   2.96100006E-02  -2.21937844E-05
   2.98200008E-02  -2.27119817E-05
   3.00299991E-02  -2.30953247E-05
   3.02399993E-02  -2.33300198E-05
   3.04499995E-02  -2.34025101E-05
   3.06599997E-02  -2.32996153E-05
   3.08699999E-02  -2.30086607E-05
   3.10800001E-02  -2.25176336E-05
   3.12899984E-02  -2.18153218E-05
   3.15000005E-02  -2.08914607E-05
   3.17099988E-02  -1.97368845E-05
   3.19200009E-02  -1.83436732E-05
   3.21299993E-02  -1.67052985E-05
   3.23400013E-02  -1.48167637E-05
   3.25499997E-02  -1.26747354E-05
   3.27600017E-02  -1.02776830E-05
   3.29700001E-02  -7.62599075E-06
   3.31799984E-02  -4.72207330E-06
   3.33900005E-02  -1.57047430E-06
   3.35999988E-02   1.82204667E-06
   3.38100009E-02   5.44644354E-06
   3.40199992E-02   9.29132329E-06
   3.42300013E-02   1.33429012E-05
   3.44399996E-02   1.75849873E-05
   3.46500017E-02   2.19989743E-05
   3.48600000E-02   2.65638628E-05
   3.50699984E-02   3.12562843E-05
   3.52800004E-02   3.60505655E-05
   3.54899988E-02   4.09188142E-05
   3.57000008E-02   4.58310096E-05
   3.59099992E-02   5.07551231E-05
   3.61200012E-02   5.56572704E-05
   3.63299996E-02   6.05018722E-05
   3.65400016E-02   6.52518356E-05
   3.67500000E-02   6.98687800E-05
   3.69599983E-02   7.43132405E-05
   3.71700004E-02   7.85449083E-05
   3.73799987E-02   8.25229145E-05
   3.75900008E-02   8.62060697E-05
   3.77999991E-02   8.95531848E-05
   3.80100012E-02   9.25233617E-05
   3.82199995E-02   9.50762769E-05
   3.84300016E-02   9.71725240E-05
   3.86399999E-02   9.87739186E-05
   3.88499983E-02   9.98438409E-05
   3.90600003E-02   1.00347512E-04
   3.92699987E-02   1.00252357E-04
   3.94800007E-02   9.95283190E-05
   3.96899991E-02   9.81481135E-05
   3.99000011E-02   9.60875841E-05
   4.01099995E-02   9.33259726E-05
   4.03200015E-02   8.98461294E-05
   4.05299999E-02   8.56348488E-05
   4.07399982E-02   8.06830139E-05
   4.09500003E-02   7.49858664E-05
   4.11599986E-02   6.85431442E-05
   4.13700007E-02   6.13592638E-05
   4.15799990E-02   5.34434184E-05
   4.17900011E-02   4.48096980E-05
   4.19999994E-02   3.54771510E-05
   4.22100015E-02   2.54698061E-05
   4.24199998E-02   1.48166828E-05
   4.26299982E-02   3.55175462E-06
   4.28400002E-02  -8.28610791E-06
   4.30499986E-02  -2.06532422E-05
   4.32600006E-02  -3.35013137E-05
   4.34699990E-02  -4.67775026E-05
   4.36800011E-02  -6.04246561E-05
   4.38899994E-02  -7.43815617E-05
   4.41000015E-02  -8.85831541E-05
   4.43099998E-02  -1.02960817E-04
   4.45200019E-02  -1.17442702E-04
   4.47300002E-02  -1.31954017E-04
   4.49399985E-02  -1.46417384E-04
   4.51500006E-02  -1.60753247E-04
   4.53599989E-02  -1.74880202E-04
   4.55700010E-02  -1.88715450E-04
   4.57799993E-02  -2.02175128E-04
   4.59900014E-02  -2.15174790E-04
   4.61999997E-02  -2.27629833E-04
   4.64100018E-02  -2.39455854E-04
   4.66200002E-02  -2.50569166E-04
   4.68299985E-02  -2.60887144E-04
   4.70400006E-02  -2.70328688E-04
   4.72499989E-02  -2.78814608E-04
   4.74600010E-02  -2.86268041E-04
   4.76699993E-02  -2.92614888E-04
   4.78800014E-02  -2.97784165E-04
   4.80899997E-02  -3.01708264E-04
   4.83000018E-02  -3.04323563E-04
   4.85100001E-02  -3.05570487E-04
   4.87199984E-02  -3.05393973E-04
   4.89300005E-02  -3.03743727E-04
   4.91399989E-02  -3.00574611E-04
   4.93500009E-02  -2.95846752E-04
   4.95599993E-02  -2.89525837E-04
   4.97700013E-02  -2.81583401E-04
   4.99799997E-02  -2.71997065E-04
   5.01900017E-02  -2.60750559E-04
   5.04000001E-02  -2.47834076E-04
   5.06099984E-02  -2.33244355E-04
   5.08200005E-02  -2.16984801E-04
   5.10299988E-02  -1.99065747E-04
   5.12400009E-02  -1.79504408E-04
   5.14499992E-02  -1.58325100E-04
   5.16600013E-02  -1.35559283E-04
   5.18699996E-02  -1.11245696E-04
   5.20800017E-02  -8.54303871E-05
   5.22900000E-02  -5.81667919E-05
   5.24999984E-02  -2.95158170E-05
   5.27100004E-02   4.54137506E-07
   5.29199988E-02   3.16671394E-05
   5.31300008E-02   6.40396756E-05
   5.33399992E-02   9.74806608E-05
   5.35500012E-02   1.31891386E-04
   5.37599996E-02   1.67165577E-04
   5.39700016E-02   2.03189411E-04
   5.41800000E-02   2.39841524E-04
   5.43899983E-02   2.76993087E-04
   5.46000004E-02   3.14507866E-04
   5.48099987E-02   3.52242379E-04
   5.50200008E-02   3.90046014E-04
   5.52299991E-02   4.27761115E-04
   5.54400012E-02   4.65223333E-04
   5.56499995E-02   5.02261799E-04
   5.58600016E-02   5.38699329E-04
   5.60699999E-02   5.74352860E-04
   5.62799983E-02   6.09033857E-04
   5.64900003E-02   6.42548664E-04
   5.66999987E-02   6.74699084E-04
   5.69100007E-02   7.05282844E-04
   5.71199991E-02   7.34094356E-04
   5.73300011E-02   7.60925352E-04
   5.75399995E-02   7.85565586E-04
   5.77500015E-02   8.07803706E-04
   5.79599999E-02   8.27428361E-04
   5.81699982E-02   8.44229013E-04
   5.83800003E-02   8.57996929E-04
   5.85899986E-02   8.68526578E-04
   5.88000007E-02   8.75616504E-04
   5.90099990E-02   8.79070896E-04
   5.92200011E-02   8.78700928E-04
   5.94299994E-02   8.74325924E-04
   5.96400015E-02   8.65775102E-04
   5.98499998E-02   8.52888916E-04
   6.00599982E-02   8.35520681E-04
   6.02700002E-02   8.13538092E-04
   6.04799986E-02   7.86824850E-04
   6.06900007E-02   7.55282352E-04
   6.08999990E-02   7.18831376E-04
   6.11100011E-02   6.77413365E-04
   6.13199994E-02   6.30992174E-04
   6.15300015E-02   5.79555926E-04
   6.17399998E-02   5.23117837E-04
   6.19499981E-02   4.61718126E-04
   6.21600002E-02   3.95425188E-04
   6.23699985E-02   3.24336754E-04
   6.25799969E-02   2.48581026E-04
   6.27899989E-02   1.68317638E-04
   6.30000010E-02   8.37383996E-05
   6.32100031E-02  -4.93203379E-06
   6.34199977E-02  -9.74357536E-05
   6.36299998E-02  -1.93481246E-04
   6.38400018E-02  -2.92743469E-04
   6.40499964E-02  -3.94864066E-04
   6.42599985E-02  -4.99451649E-04
   6.44700006E-02  -6.06082729E-04
   6.46800026E-02  -7.14302179E-04
   6.48899972E-02  -8.23625072E-04
   6.50999993E-02  -9.33537609E-04
   6.53100014E-02  -1.04349921E-03
   6.55200034E-02  -1.15294417E-03
   6.57299981E-02  -1.26128434E-03
   6.59400001E-02  -1.36791135E-03
   6.61500022E-02  -1.47219968E-03
   6.63599968E-02  -1.57350919E-03
   6.65699989E-02  -1.67118921E-03
   6.67800009E-02  -1.76458131E-03
   6.69900030E-02  -1.85302366E-03
   6.71999976E-02  -1.93585444E-03
   6.74099997E-02  -2.01241649E-03
   6.76200017E-02  -2.08206079E-03
   6.78299963E-02  -2.14415230E-03
   6.80399984E-02  -2.19807215E-03
   6.82500005E-02  -2.24322430E-03
   6.84600025E-02  -2.27903924E-03
   6.86699972E-02  -2.30497890E-03
   6.88799992E-02  -2.32054014E-03
   6.90900013E-02  -2.32526101E-03
   6.93000033E-02  -2.31872406E-03
   6.95099980E-02  -2.30056001E-03
   6.97200000E-02  -2.27045338E-03
   6.99300021E-02  -2.22814549E-03
   7.01399967E-02  -2.17343774E-03
   7.03499988E-02  -2.10619625E-03
   7.05600008E-02  -2.02635303E-03
   7.07700029E-02  -1.93391007E-03
   7.09799975E-02  -1.82894175E-03
   7.11899996E-02  -1.71159580E-03
   7.14000016E-02  -1.58209528E-03
   7.16100037E-02  -1.44073972E-03
   7.18199983E-02  -1.28790538E-03
   7.20300004E-02  -1.12404511E-03
   7.22400025E-02  -9.49688198E-04
   7.24499971E-02  -7.65439472E-04
   7.26599991E-02  -5.71977231E-04
   7.28700012E-02  -3.70051392E-04
   7.30800033E-02  -1.60480879E-04
   7.32899979E-02   5.58496467E-05
   7.34999999E-02   2.77993386E-04
   7.37100020E-02   5.04945870E-04
   7.39199966E-02   7.35649373E-04
   7.41299987E-02   9.68998298E-04
   7.43400007E-02   1.20384502E-03
   7.45500028E-02   1.43900549E-03
   7.47599974E-02   1.67326618E-03
   7.49699995E-02   1.90539041E-03
   7.51800016E-02   2.13412591E-03
   7.53900036E-02   2.35821190E-03
   7.55999982E-02   2.57638725E-03
   7.58100003E-02   2.78739678E-03
   7.60200024E-02   2.99000111E-03
   7.62299970E-02   3.18298326E-03
   7.64399990E-02   3.36515694E-03
   7.66500011E-02   3.53537407E-03
   7.68600032E-02   3.69253289E-03
   7.70699978E-02   3.83558637E-03
   7.72799999E-02   3.96354776E-03
   7.74900019E-02   4.07549879E-03
   7.76999965E-02   4.17059613E-03
   7.79099986E-02   4.24807798E-03
   7.81200007E-02   4.30726958E-03
   7.83300027E-02   4.34758887E-03
   7.85399973E-02   4.36854968E-03
   7.87499994E-02   4.36976925E-03
   7.89600015E-02   4.35096864E-03
   7.91700035E-02   4.31197742E-03
   7.93799981E-02   4.25273506E-03
   7.95900002E-02   4.17329278E-03
   7.98000023E-02   4.07381356E-03
   8.00099969E-02   3.95457400E-03
   8.02199990E-02   3.81596200E-03
   8.04300010E-02   3.65847442E-03
   8.06400031E-02   3.48271686E-03
   8.08499977E-02   3.28939874E-03
   8.10599998E-02   3.07933078E-03
   8.12700018E-02   2.85342010E-03
   8.14799964E-02   2.61266460E-03
   8.16899985E-02   2.35814671E-03
   8.19000006E-02   2.09102849E-03
   8.21100026E-02   1.81254232E-03
   8.23199973E-02   1.52398506E-03
   8.25299993E-02   1.22670899E-03
   8.27400014E-02   9.22113250E-04
   8.29500034E-02   6.11635216E-04
   8.31599981E-02   2.96741200E-04
   8.33700001E-02  -2.10829530E-05
   8.35800022E-02  -3.40341619E-04
   8.37899968E-02  -6.59539015E-04
   8.39999989E-02  -9.77188814E-04
   8.42100009E-02  -1.29182416E-03
   8.44200030E-02  -1.60200649E-03
   8.46299976E-02  -1.90633559E-03
   8.48399997E-02  -2.20345822E-03
   8.50500017E-02  -2.49207672E-03
   8.52599964E-02  -2.77095730E-03
   8.54699984E-02  -3.03893839E-03
   8.56800005E-02  -3.29493685E-03
   8.58900025E-02  -3.53795500E-03
   8.60999972E-02  -3.76708666E-03
   8.63099992E-02  -3.98152228E-03
   8.65200013E-02  -4.18055383E-03
   8.67300034E-02  -4.36357781E-03
   8.69399980E-02  -4.53009782E-03
   8.71500000E-02  -4.67972830E-03
   8.73600021E-02  -4.81219357E-03
   8.75699967E-02  -4.92732832E-03
   8.77799988E-02  -5.02507947E-03
   8.79900008E-02  -5.10550104E-03
   8.82000029E-02  -5.16875507E-03
   8.84099975E-02  -5.21510513E-03
   8.86199996E-02  -5.24491491E-03
   8.88300017E-02  -5.25864260E-03
   8.90400037E-02  -5.25683444E-03
   8.92499983E-02  -5.24011860E-03
   8.94600004E-02  -5.20920008E-03
   8.96700025E-02  -5.16485004E-03
   8.98799971E-02  -5.10789920E-03
   9.00899991E-02  -5.03922999E-03
   9.03000012E-02  -4.95976582E-03
   9.05100033E-02  -4.87046316E-03
   9.07199979E-02  -4.77230083E-03
   9.09299999E-02  -4.66627115E-03
   9.11400020E-02  -4.55336878E-03
   9.13499966E-02  -4.43458185E-03
   9.15599987E-02  -4.31088125E-03
   9.17700008E-02  -4.18321369E-03
   9.19800028E-02  -4.05248720E-03
   9.21899974E-02  -3.91956745E-03
   9.23999995E-02  -3.78526538E-03
   9.26100016E-02  -3.65033071E-03
   9.28200036E-02  -3.51544330E-03
   9.30299982E-02  -3.38120782E-03
   9.32400003E-02  -3.24814580E-03
   9.34500024E-02  -3.11669055E-03
   9.36599970E-02  -2.98718293E-03
   9.38699991E-02  -2.85986764E-03
   9.40800011E-02  -2.73488881E-03
   9.42900032E-02  -2.61228951E-03
   9.44999978E-02  -2.49201036E-03
   9.47099999E-02  -2.37388862E-03
   9.49200019E-02  -2.25766003E-03
   9.51299965E-02  -2.14296067E-03
   9.53399986E-02  -2.02932907E-03
   9.55500007E-02  -1.91621063E-03
   9.57600027E-02  -1.80296204E-03
   9.59699973E-02  -1.68885756E-03
   9.61799994E-02  -1.57309533E-03
   9.63900015E-02  -1.45480433E-03
   9.66000035E-02  -1.33305346E-03
   9.68099982E-02  -1.20685971E-03
   9.70200002E-02  -1.07519852E-03
   9.72300023E-02  -9.37012897E-04
   9.74399969E-02  -7.91225291E-04
   9.76499990E-02  -6.36748038E-04
   9.78600010E-02  -4.72494779E-04
   9.80700031E-02  -2.97392253E-04
   9.82799977E-02  -1.10392568E-04
   9.84899998E-02   8.95153062E-05
   9.87000018E-02   3.03293200E-04
   9.89099964E-02   5.31842350E-04
   9.91199985E-02   7.75991532E-04
   9.93300006E-02   1.03648577E-03
   9.95400026E-02   1.31397590E-03
   9.97499973E-02   1.60900760E-03
   9.99599993E-02   1.92201184E-03
  0.100170001       2.25329609E-03
  0.100380003       2.60303519E-03
  0.100589998       2.97126407E-03
  0.100800000       3.35787213E-03
  0.101010002       3.76259675E-03
  0.101219997       4.18501813E-03
  0.101429999       4.62455628E-03
  0.101640001       5.08046756E-03
  0.101850003       5.55184484E-03
  0.102059998       6.03761524E-03
  0.102270000       6.53654337E-03
  0.102480002       7.04723177E-03
  0.102689996       7.56812328E-03
  0.102899998       8.09750892E-03
  0.103110000       8.63352884E-03
  0.103320003       9.17418487E-03
  0.103529997       9.71733965E-03
  0.103739999       1.02607366E-02
  0.103950001       1.08019989E-02
  0.104160003       1.13386456E-02
  0.104369998       1.18681025E-02
  0.104580000       1.23877153E-02
  0.104790002       1.28947599E-02
  0.104999997       1.33864591E-02
  0.105209999       1.38599928E-02
  0.105420001       1.43125197E-02
  0.105630003       1.47411842E-02
  0.105839998       1.51431346E-02
  0.106050000       1.55155379E-02
  0.106260002       1.58556011E-02
  0.106470004       1.61605738E-02
  0.106679998       1.64277777E-02
  0.106890000       1.66546106E-02
  0.107100002       1.68385692E-02
  0.107309997       1.69772543E-02
  0.107519999       1.70683879E-02
  0.107730001       1.71098355E-02
  0.107940003       1.70996040E-02
  0.108149998       1.70358624E-02
  0.108360000       1.69169437E-02
  0.108570002       1.67413652E-02
  0.108779997       1.65078361E-02
  0.108989999       1.62152536E-02
  0.109200001       1.58627257E-02
  0.109410003       1.54495640E-02
  0.109619997       1.49752963E-02
  0.109830000       1.44396648E-02
  0.110040002       1.38426349E-02
  0.110250004       1.31843900E-02
  0.110459998       1.24653354E-02
  0.110670000       1.16860997E-02
  0.110880002       1.08475275E-02
  0.111089997       9.95067880E-03
  0.111299999       8.99682753E-03
  0.111510001       7.98745546E-03
  0.111720003       6.92424644E-03
  0.111929998       5.80908172E-03
  0.112140000       4.64402838E-03
  0.112350002       3.43133742E-03
  0.112559997       2.17343238E-03
  0.112769999       8.72902921E-04
  0.112980001      -4.67503822E-04
  0.113190003      -1.84489449E-03
  0.113399997      -3.25623970E-03
  0.113609999      -4.69838129E-03
  0.113820001      -6.16804091E-03
  0.114030004      -7.66183296E-03
  0.114239998      -9.17627197E-03
  0.114450000      -1.07077835E-02
  0.114660002      -1.22527089E-02
  0.114869997      -1.38073163E-02
  0.115079999      -1.53678069E-02
  0.115290001      -1.69303268E-02
  0.115500003      -1.84909757E-02
  0.115709998      -2.00458001E-02
  0.115920000      -2.15908121E-02
  0.116130002      -2.31219903E-02
  0.116339996      -2.46352814E-02
  0.116549999      -2.61266101E-02
  0.116760001      -2.75918767E-02
  0.116970003      -2.90269535E-02
  0.117179997      -3.04277055E-02
  0.117389999      -3.17899697E-02
  0.117600001      -3.31095569E-02
  0.117810003      -3.43822651E-02
  0.118019998      -3.56038809E-02
  0.118230000      -3.67701426E-02
  0.118440002      -3.78767774E-02
  0.118649997      -3.89194787E-02
  0.118859999      -3.98938954E-02
  0.119070001      -4.07956578E-02
  0.119280003      -4.16203327E-02
  0.119489998      -4.23634499E-02
  0.119700000      -4.30204868E-02
  0.119910002      -4.35868576E-02
  0.120119996      -4.40579131E-02
  0.120329998      -4.44289371E-02
  0.120540000      -4.46951464E-02
  0.120750003      -4.48516794E-02
  0.120959997      -4.48935889E-02
  0.121169999      -4.48158495E-02
  0.121380001      -4.46133427E-02
  0.121590003      -4.42808680E-02
  0.121799998      -4.38131317E-02
  0.122010000      -4.32047471E-02
  0.122220002      -4.24502306E-02
  0.122429997      -4.15440276E-02
  0.122639999      -4.04804684E-02
  0.122850001      -3.92538123E-02
  0.123060003      -3.78582329E-02
  0.123269998      -3.62878218E-02
  0.123480000      -3.45366113E-02
  0.123690002      -3.25985700E-02
  0.123899996      -3.04675866E-02
  0.124109998      -2.81375311E-02
  0.124320000      -2.56022196E-02
  0.124530002      -2.28554569E-02
  0.124739997      -1.98910311E-02
  0.124949999      -1.67027283E-02
  0.125159994      -1.32843535E-02
  0.125369996      -9.62975156E-03
  0.125579998      -5.73280593E-03
  0.125790000      -1.58746901E-03
  0.126000002       2.81221396E-03
  0.126210004       7.47209881E-03
  0.126420006       1.23979291E-02
  0.126629993       1.75953079E-02
  0.126839995       2.30696574E-02
  0.127049997       2.88262218E-02
  0.127260000       3.48700508E-02
  0.127470002       4.12059687E-02
  0.127680004       4.78385687E-02
  0.127890006       5.47721460E-02
  0.128099993       6.20107390E-02
  0.128309995       6.95580840E-02
  0.128519997       7.74175823E-02
  0.128729999       8.55922848E-02
  0.128940001       9.40849110E-02
  0.129150003      0.102897778    
  0.129360005      0.112032823    
  0.129570007      0.121491574    
  0.129779994      0.131275117    
  0.129989997      0.141384110    
  0.130199999      0.151818797    
  0.130410001      0.162578911    
  0.130620003      0.173663750    
  0.130830005      0.185072139    
  0.131040007      0.196802378    
  0.131249994      0.208852336    
  0.131459996      0.221219346    
  0.131669998      0.233900279    
  0.131880000      0.246891499    
  0.132090002      0.260188878    
  0.132300004      0.273787796    
  0.132510006      0.287683159    
  0.132719994      0.301869422    
  0.132929996      0.316340536    
  0.133139998      0.331089973    
  0.133350000      0.346110791    
  0.133560002      0.361395568    
  0.133770004      0.376936525    
  0.133980006      0.392725408    
  0.134189993      0.408753604    
  0.134399995      0.425012141    
  0.134609997      0.441491663    
  0.134819999      0.458182484    
  0.135030001      0.475074589    
  0.135240003      0.492157698    
  0.135450006      0.509421229    
  0.135659993      0.526854336    
  0.135869995      0.544445992    
  0.136079997      0.562185109    
  0.136289999      0.580060124    
  0.136500001      0.598059535    
  0.136710003      0.616171658    
  0.136920005      0.634384811    
  0.137130007      0.652687132    
  0.137339994      0.671066761    
  0.137549996      0.689511836    
  0.137759998      0.708010495    
  0.137970001      0.726550877    
  0.138180003      0.745121360    
  0.138390005      0.763710201    
  0.138600007      0.782305896    
  0.138809994      0.800897062    
  0.139019996      0.819472551    
  0.139229998      0.838021278    
  0.139440000      0.856532514    
  0.139650002      0.874995708    
  0.139860004      0.893400550    
  0.140070006      0.911737144    
  0.140279993      0.929995716    
  0.140489995      0.948166907    
  0.140699998      0.966241777    
  0.140910000      0.984211564    
  0.141120002       1.00206792    
  0.141330004       1.01980305    
  0.141540006       1.03740954    
  0.141749993       1.05488002    
  0.141959995       1.07220805    
  0.142169997       1.08938742    
  0.142379999       1.10641205    
  0.142590001       1.12327683    
  0.142800003       1.13997686    
  0.143010005       1.15650761    
  0.143220007       1.17286503    
  0.143429995       1.18904555    
  0.143639997       1.20504594    
  0.143849999       1.22086382    
  0.144060001       1.23649681    
  0.144270003       1.25194311    
  0.144480005       1.26720142    
  0.144690007       1.28227091    
  0.144899994       1.29715085    
  0.145109996       1.31184113    
  0.145319998       1.32634199    
  0.145530000       1.34065402    
  0.145740002       1.35477829    
  0.145950004       1.36871612    
  0.146160007       1.38246906    
  0.146369994       1.39603913    
  0.146579996       1.40942872    
  0.146789998       1.42264009    
  0.147000000       1.43567610    
  0.147210002       1.44853973    
  0.147420004       1.46123421    
  0.147630006       1.47376311    
  0.147839993       1.48612988    
  0.148049995       1.49833810    
  0.148259997       1.51039207    
  0.148469999       1.52229559    
  0.148680001       1.53405261    
  0.148890004       1.54566741    
  0.149100006       1.55714428    
  0.149309993       1.56848729    
  0.149519995       1.57970083    
  0.149729997       1.59078920    
  0.149939999       1.60175657    
  0.150150001       1.61260748    
  0.150360003       1.62334621    
  0.150570005       1.63397670    
  0.150780007       1.64450300    
  0.150989994       1.65492940    
  0.151199996       1.66525984    
  0.151409999       1.67549837    
  0.151620001       1.68564868    
  0.151830003       1.69571447    
  0.152040005       1.70569968    
  0.152250007       1.71560764    
  0.152459994       1.72544205    
  0.152669996       1.73520613    
  0.152879998       1.74490333    
  0.153090000       1.75453675    
  0.153300002       1.76410937    
  0.153510004       1.77362430    
  0.153720006       1.78308487    
  0.153929994       1.79249370    
  0.154139996       1.80185390    
  0.154349998       1.81116831    
  0.154560000       1.82043982    
  0.154770002       1.82967103    
  0.154980004       1.83886480    
  0.155190006       1.84802401    
  0.155399993       1.85715151    
  0.155609995       1.86625028    
  0.155819997       1.87532330    
  0.156029999       1.88437343    
  0.156240001       1.89340377    
  0.156450003       1.90241754    
  0.156660005       1.91141760    
  0.156869993       1.92040765    
  0.157079995       1.92939091    
  0.157289997       1.93837118    
  0.157499999       1.94735181    
  0.157710001       1.95633650    
  0.157920003       1.96532929    
  0.158130005       1.97433424    
  0.158340007       1.98335528    
  0.158549994       1.99239671    
  0.158759996       2.00146294    
  0.158969998       2.01055813    
  0.159180000       2.01968741    
  0.159390002       2.02885532    
  0.159600005       2.03806591    
  0.159810007       2.04732442    
  0.160019994       2.05663610    
  0.160229996       2.06600547    
  0.160439998       2.07543755    
  0.160650000       2.08493733    
  0.160860002       2.09450936    
  0.161070004       2.10415864    
  0.161280006       2.11389017    
  0.161489993       2.12370872    
  0.161699995       2.13361883    
  0.161909997       2.14362502    
  0.162120000       2.15373182    
  0.162330002       2.16394305    
  0.162540004       2.17426276    
  0.162750006       2.18469477    
  0.162959993       2.19524240    
  0.163169995       2.20590854    
  0.163379997       2.21669650    
  0.163589999       2.22760868    
  0.163800001       2.23864675    
  0.164010003       2.24981284    
  0.164220005       2.26110840    
  0.164430007       2.27253366    
  0.164639995       2.28408957    
  0.164849997       2.29577589    
  0.165059999       2.30759263    
  0.165270001       2.31953812    
  0.165480003       2.33161163    
  0.165690005       2.34381056    
  0.165900007       2.35613275    
  0.166109994       2.36857510    
  0.166319996       2.38113403    
  0.166529998       2.39380527    
  0.166740000       2.40658450    
  0.166950002       2.41946650    
  0.167160004       2.43244624    
  0.167370006       2.44551659    
  0.167579994       2.45867157    
  0.167789996       2.47190380    
  0.167999998       2.48520613    
  0.168210000       2.49857044    
  0.168420002       2.51198864    
  0.168630004       2.52545190    
  0.168840006       2.53895164    
  0.169049993       2.55247855    
  0.169259995       2.56602263    
  0.169469997       2.57957411    
  0.169679999       2.59312344    
  0.169890001       2.60666013    
  0.170100003       2.62017393    
  0.170310006       2.63365436    
  0.170519993       2.64709091    
  0.170729995       2.66047335    
  0.170939997       2.67379117    
  0.171149999       2.68703389    
  0.171360001       2.70019150    
  0.171570003       2.71325374    
  0.171780005       2.72621036    
  0.171990007       2.73905230    
  0.172199994       2.75177026    
  0.172409996       2.76435471    
  0.172619998       2.77679729    
  0.172830001       2.78908920    
  0.173040003       2.80122256    
  0.173250005       2.81318951    
  0.173460007       2.82498384    
  0.173669994       2.83659863    
  0.173879996       2.84802771    
  0.174089998       2.85926533    
  0.174300000       2.87030697    
  0.174510002       2.88114834    
  0.174720004       2.89178586    
  0.174930006       2.90221620    
  0.175139993       2.91243696    
  0.175349995       2.92244625    
  0.175559998       2.93224239    
  0.175770000       2.94182491    
  0.175980002       2.95119357    
  0.176190004       2.96034908    
  0.176400006       2.96929240    
  0.176609993       2.97802544    
  0.176819995       2.98655081    
  0.177029997       2.99487114    
  0.177239999       3.00298953    
  0.177450001       3.01091051    
  0.177660003       3.01863861    
  0.177870005       3.02617836    
  0.178080007       3.03353548    
  0.178289995       3.04071569    
  0.178499997       3.04772520    
  0.178709999       3.05457044    
  0.178920001       3.06125832    
  0.179130003       3.06779623    
  0.179340005       3.07419181    
  0.179550007       3.08045197    
  0.179759994       3.08658481    