   0.00000000       0.00000000    
   2.09999998E-04   0.00000000    
   4.19999997E-04   0.00000000    
   6.30000024E-04   0.00000000    
   8.39999993E-04  -4.49951841E-21
   1.04999996E-03  -4.82895020E-20
   1.26000005E-03  -2.79230119E-19
   1.47000002E-03  -1.15789094E-18
   1.67999999E-03  -3.86107479E-18
   1.88999996E-03  -1.10064611E-17
   2.09999993E-03  -2.78455332E-17
   2.30999989E-03  -6.41003830E-17
   2.52000010E-03  -1.36647458E-16
   2.73000007E-03  -2.73262226E-16
   2.94000003E-03  -5.17650633E-16
   3.15000000E-03  -9.35995653E-16
   3.35999997E-03  -1.62521980E-15
   3.56999994E-03  -2.72318488E-15
   3.77999991E-03  -4.42092033E-15
   3.99000011E-03  -6.97698413E-15
   4.19999985E-03  -1.07340132E-14
   4.41000005E-03  -1.61370652E-14
   4.61999979E-03  -2.37540276E-14
   4.82999999E-03  -3.42975973E-14
   5.04000019E-03  -4.86479075E-14
   5.24999993E-03  -6.78756300E-14
   5.46000013E-03  -9.32650970E-14
   5.66999987E-03  -1.26336346E-13
   5.88000007E-03  -1.68864258E-13
   6.08999981E-03  -2.22895324E-13
   6.30000001E-03  -2.90758791E-13
   6.51000021E-03  -3.75072071E-13
   6.71999995E-03  -4.78740799E-13
   6.93000015E-03  -6.04946106E-13
   7.13999989E-03  -7.57123314E-13
   7.35000009E-03  -9.38933718E-13
   7.55999982E-03  -1.15421507E-12
   7.77000003E-03  -1.40692135E-12
   7.98000023E-03  -1.70104675E-12
   8.19000043E-03  -2.04052812E-12
   8.39999970E-03  -2.42914044E-12
   8.60999990E-03  -2.87036627E-12
   8.82000010E-03  -3.36724680E-12
   9.03000031E-03  -3.92221238E-12
   9.23999958E-03  -4.53691208E-12
   9.44999978E-03  -5.21202049E-12
   9.65999998E-03  -5.94700894E-12
   9.87000018E-03  -6.73993326E-12
   1.00800004E-02  -7.58721211E-12
   1.02899997E-02  -8.48331301E-12
   1.04999999E-02  -9.42059538E-12
   1.07100001E-02  -1.03890499E-11
   1.09200003E-02  -1.13759497E-11
   1.11300005E-02  -1.23657204E-11
   1.13399997E-02  -1.33397121E-11
   1.15499999E-02  -1.42759450E-11
   1.17600001E-02  -1.51489325E-11
   1.19700003E-02  -1.59295199E-11
   1.21799996E-02  -1.65847908E-11
   1.23899998E-02  -1.70779588E-11
   1.26000000E-02  -1.73683273E-11
   1.28100002E-02  -1.74112651E-11
   1.30200004E-02  -1.71582748E-11
   1.32299997E-02  -1.65571359E-11
   1.34399999E-02  -1.55520787E-11
   1.36500001E-02  -1.40841002E-11
   1.38600003E-02  -1.20911059E-11
   1.40699996E-02  -9.50821019E-12
   1.42799998E-02  -6.26840680E-12
   1.44900000E-02  -2.30315398E-12
   1.47000002E-02   2.45738998E-12
   1.49100004E-02   8.08337512E-12
   1.51199996E-02   1.46446379E-11
   1.53299998E-02   2.22100966E-11
   1.55400001E-02   3.08462908E-11
   1.57500003E-02   4.06170028E-11
   1.59600005E-02   5.15819644E-11
   1.61700007E-02   6.37960795E-11
   1.63800009E-02   7.73082293E-11
   1.65899992E-02   9.21594190E-11
   1.67999994E-02   1.08382026E-10
   1.70099996E-02   1.25998614E-10
   1.72199998E-02   1.45020745E-10
   1.74300000E-02   1.65447003E-10
   1.76400002E-02   1.87261762E-10
   1.78500004E-02   2.10434101E-10
   1.80600006E-02   2.34915531E-10
   1.82700008E-02   2.60638899E-10
   1.84799992E-02   2.87517010E-10
   1.86899994E-02   3.15440757E-10
   1.88999996E-02   3.44277329E-10
   1.91099998E-02   3.73868825E-10
   1.93200000E-02   4.04030559E-10
   1.95300002E-02   4.34549702E-10
   1.97400004E-02   4.65183086E-10
   1.99500006E-02   4.95655850E-10
   2.01600008E-02   5.25659904E-10
   2.03699991E-02   5.54852497E-10
   2.05799993E-02   5.82854598E-10
   2.07899995E-02   6.09249540E-10
   2.09999997E-02   6.33582298E-10
   2.12099999E-02   6.55357324E-10
   2.14200001E-02   6.74039158E-10
   2.16300003E-02   6.89050927E-10
   2.18400005E-02   6.99773461E-10
   2.20500007E-02   7.05546344E-10
   2.22600009E-02   7.05667635E-10
   2.24699993E-02   6.99394820E-10
   2.26799995E-02   6.85945745E-10
   2.28899997E-02   6.64499900E-10
   2.30999999E-02   6.34202468E-10
   2.33100001E-02   5.94166938E-10
   2.35200003E-02   5.43477374E-10
   2.37300005E-02   4.81195306E-10
   2.39400007E-02   4.06366357E-10
   2.41500009E-02   3.18021942E-10
   2.43599992E-02   2.15191490E-10
   2.45699994E-02   9.69104241E-11
   2.47799996E-02  -3.77722818E-11
   2.49899998E-02  -1.89773808E-10
   2.52000000E-02  -3.59973579E-10
   2.54100002E-02  -5.49200352E-10
   2.56200004E-02  -7.58209495E-10
   2.58300006E-02  -9.87671500E-10
   2.60400008E-02  -1.23815302E-09
   2.62499992E-02  -1.51009460E-09
   2.64599994E-02  -1.80379134E-09
   2.66699996E-02  -2.11937889E-09
   2.68799998E-02  -2.45679876E-09
   2.70900000E-02  -2.81577406E-09
   2.73000002E-02  -3.19579518E-09
   2.75100004E-02  -3.59608920E-09
   2.77200006E-02  -4.01559364E-09
   2.79300008E-02  -4.45293402E-09
   2.81399991E-02  -4.90639485E-09
   2.83499993E-02  -5.37389688E-09
   2.85599995E-02  -5.85297588E-09
   2.87699997E-02  -6.34075636E-09
   2.89799999E-02  -6.83392987E-09
   2.91900001E-02  -7.32874250E-09
   2.94000003E-02  -7.82097853E-09
   2.96100006E-02  -8.30594438E-09
   2.98200008E-02  -8.77846507E-09
   3.00299991E-02  -9.23287491E-09
   3.02399993E-02  -9.66301794E-09
   3.04499995E-02  -1.00622559E-08
   3.06599997E-02  -1.04234816E-08
   3.08699999E-02  -1.07391358E-08
   3.10800001E-02  -1.10012337E-08
   3.12899984E-02  -1.12013927E-08
   3.15000005E-02  -1.13308731E-08
   3.17099988E-02  -1.13806244E-08
   3.19200009E-02  -1.13413474E-08
   3.21299993E-02  -1.12035510E-08
   3.23400013E-02  -1.09576321E-08
   3.25499997E-02  -1.05939524E-08
   3.27600017E-02  -1.01029265E-08
   3.29700001E-02  -9.47513179E-09
   3.31799984E-02  -8.70140937E-09
   3.33900005E-02  -7.77297959E-09
   3.35999988E-02  -6.68156019E-09
   3.38100009E-02  -5.41950307E-09
   3.40199992E-02  -3.97993505E-09
   3.42300013E-02  -2.35688224E-09
   3.44399996E-02  -5.45431478E-10
   3.46500017E-02   1.45810997E-09
   3.48600000E-02   3.65610942E-09
   3.50699984E-02   6.04942230E-09
   3.52800004E-02   8.63722605E-09
   3.54899988E-02   1.14169234E-08
   3.57000008E-02   1.43839642E-08
   3.59099992E-02   1.75317059E-08
   3.61200012E-02   2.08512940E-08
   3.63299996E-02   2.43315519E-08
   3.65400016E-02   2.79588743E-08
   3.67500000E-02   3.17171214E-08
   3.69599983E-02   3.55875613E-08
   3.71700004E-02   3.95487874E-08
   3.73799987E-02   4.35766978E-08
   3.75900008E-02   4.76445159E-08
   3.77999991E-02   5.17227257E-08
   3.80100012E-02   5.57791857E-08
   3.82199995E-02   5.97791825E-08
   3.84300016E-02   6.36854622E-08
   3.86399999E-02   6.74584228E-08
   3.88499983E-02   7.10562844E-08
   3.90600003E-02   7.44351922E-08
   3.92699987E-02   7.75495081E-08
   3.94800007E-02   8.03520805E-08
   3.96899991E-02   8.27944504E-08
   3.99000011E-02   8.48273203E-08
   4.01099995E-02   8.64008101E-08
   4.03200015E-02   8.74648407E-08
   4.05299999E-02   8.79695818E-08
   4.07399982E-02   8.78659137E-08
   4.09500003E-02   8.71058745E-08
   4.11599986E-02   8.56431654E-08
   4.13700007E-02   8.34336831E-08
   4.15799990E-02   8.04360241E-08
   4.17900011E-02   7.66120536E-08
   4.19999994E-02   7.19274524E-08
   4.22100015E-02   6.63522641E-08
   4.24199998E-02   5.98614420E-08
   4.26299982E-02   5.24354675E-08
   4.28400002E-02   4.40608190E-08
   4.30499986E-02   3.47304940E-08
   4.32600006E-02   2.44445850E-08
   4.34699990E-02   1.32106868E-08
   4.36800011E-02   1.04433884E-09
   4.38899994E-02  -1.20305250E-08
   4.41000015E-02  -2.59812936E-08
   4.43099998E-02  -4.07663769E-08
   4.45200019E-02  -5.63349190E-08
   4.47300002E-02  -7.26266336E-08
   4.49399985E-02  -8.95717491E-08
   4.51500006E-02  -1.07090962E-07
   4.53599989E-02  -1.25095454E-07
   4.55700010E-02  -1.43486986E-07
   4.57799993E-02  -1.62158244E-07
   4.59900014E-02  -1.80993041E-07
   4.61999997E-02  -1.99866705E-07
   4.64100018E-02  -2.18646690E-07
   4.66200002E-02  -2.37192992E-07
   4.68299985E-02  -2.55358970E-07
   4.70400006E-02  -2.72992025E-07
   4.72499989E-02  -2.89934519E-07
   4.74600010E-02  -3.06024702E-07
   4.76699993E-02  -3.21097730E-07
   4.78800014E-02  -3.34986680E-07
   4.80899997E-02  -3.47524121E-07
   4.83000018E-02  -3.58542735E-07
   4.85100001E-02  -3.67877249E-07
   4.87199984E-02  -3.75365659E-07
   4.89300005E-02  -3.80850366E-07
   4.91399989E-02  -3.84179742E-07
   4.93500009E-02  -3.85209802E-07
   4.95599993E-02  -3.83805457E-07
   4.97700013E-02  -3.79841936E-07
   4.99799997E-02  -3.73206689E-07
   5.01900017E-02  -3.63800325E-07
   5.04000001E-02  -3.51538574E-07
   5.06099984E-02  -3.36352883E-07
   5.08200005E-02  -3.18192235E-07
   5.10299988E-02  -2.97024485E-07
   5.12400009E-02  -2.72836985E-07
   5.14499992E-02  -2.45638120E-07
   5.16600013E-02  -2.15458073E-07
   5.18699996E-02  -1.82349268E-07
   5.20800017E-02  -1.46387421E-07
   5.22900000E-02  -1.07671646E-07
   5.24999984E-02  -6.63247519E-08
   5.27100004E-02  -2.24940297E-08
   5.29199988E-02   2.36492461E-08
   5.31300008E-02   7.19099802E-08
   5.33399992E-02   1.22069991E-07
   5.35500012E-02   1.73888324E-07
   5.37599996E-02   2.27101779E-07
   5.39700016E-02   2.81426480E-07
   5.41800000E-02   3.36559140E-07
   5.43899983E-02   3.92177498E-07
   5.46000004E-02   4.47942767E-07
   5.48099987E-02   5.03501667E-07
   5.50200008E-02   5.58487329E-07
   5.52299991E-02   6.12522172E-07
   5.54400012E-02   6.65220284E-07
   5.56499995E-02   7.16189902E-07
   5.58600016E-02   7.65035622E-07
   5.60699999E-02   8.11361417E-07
   5.62799983E-02   8.54772850E-07
   5.64900003E-02   8.94880827E-07
   5.66999987E-02   9.31304157E-07
   5.69100007E-02   9.63672505E-07
   5.71199991E-02   9.91629463E-07
   5.73300011E-02   1.01483545E-06
   5.75399995E-02   1.03297123E-06
   5.77500015E-02   1.04574008E-06
   5.79599999E-02   1.05287143E-06
   5.81699982E-02   1.05412323E-06
   5.83800003E-02   1.04928449E-06
   5.85899986E-02   1.03817820E-06
   5.88000007E-02   1.02066338E-06
   5.90099990E-02   9.96637596E-07
   5.92200011E-02   9.66038442E-07
   5.94299994E-02   9.28845736E-07
   5.96400015E-02   8.85082443E-07
   5.98499998E-02   8.34816149E-07
   6.00599982E-02   7.78160199E-07
   6.02700002E-02   7.15273757E-07
   6.04799986E-02   6.46362707E-07
   6.06900007E-02   5.71679152E-07
   6.08999990E-02   4.91521007E-07
   6.11100011E-02   4.06232118E-07
   6.13199994E-02   3.16199959E-07
   6.15300015E-02   2.21853767E-07
   6.17399998E-02   1.23665018E-07
   6.19499981E-02   2.21437002E-08
   6.21600002E-02  -8.21642416E-08
   6.23699985E-02  -1.88678797E-07
   6.25799969E-02  -2.96789267E-07
   6.27899989E-02  -4.05857804E-07
   6.30000010E-02  -5.15223462E-07
   6.32100031E-02  -6.24207360E-07
   6.34199977E-02  -7.32113392E-07
   6.36299998E-02  -8.38234882E-07
   6.38400018E-02  -9.41861401E-07
   6.40499964E-02  -1.04227911E-06
   6.42599985E-02  -1.13877752E-06
   6.44700006E-02  -1.23065593E-06
   6.46800026E-02  -1.31722675E-06
   6.48899972E-02  -1.39782082E-06
   6.50999993E-02  -1.47179321E-06
   6.53100014E-02  -1.53852852E-06
   6.55200034E-02  -1.59744661E-06
   6.57299981E-02  -1.64800576E-06
   6.59400001E-02  -1.68970655E-06
   6.61500022E-02  -1.72209843E-06
   6.63599968E-02  -1.74478600E-06
   6.65699989E-02  -1.75743071E-06
   6.67800009E-02  -1.75975276E-06
   6.69900030E-02  -1.75153866E-06
   6.71999976E-02  -1.73264152E-06
   6.74099997E-02  -1.70298381E-06
   6.76200017E-02  -1.66256223E-06
   6.78299963E-02  -1.61144851E-06
   6.80399984E-02  -1.54978909E-06
   6.82500005E-02  -1.47780861E-06
   6.84600025E-02  -1.39580993E-06
   6.86699972E-02  -1.30417243E-06
   6.88799992E-02  -1.20335312E-06
   6.90900013E-02  -1.09388372E-06
   6.93000033E-02  -9.76371211E-07
   6.95099980E-02  -8.51494008E-07
   6.97200000E-02  -7.20000173E-07
   6.99300021E-02  -5.82705752E-07
   7.01399967E-02  -4.40486787E-07
   7.03499988E-02  -2.94277584E-07
   7.05600008E-02  -1.45065940E-07
   7.07700029E-02   6.11231732E-09
   7.09799975E-02   1.58179631E-07
   7.11899996E-02   3.10021960E-07
   7.14000016E-02   4.60496238E-07
   7.16100037E-02   6.08438540E-07
   7.18199983E-02   7.52669280E-07
   7.20300004E-02   8.92001310E-07
   7.22400025E-02   1.02524723E-06
   7.24499971E-02   1.15122839E-06
   7.26599991E-02   1.26878365E-06
   7.28700012E-02   1.37677773E-06
   7.30800033E-02   1.47410890E-06
   7.32899979E-02   1.55971702E-06
   7.34999999E-02   1.63259381E-06
   7.37100020E-02   1.69178929E-06
   7.39199966E-02   1.73642059E-06
   7.41299987E-02   1.76568051E-06
   7.43400007E-02   1.77884522E-06
   7.45500028E-02   1.77528239E-06
   7.47599974E-02   1.75445803E-06
   7.49699995E-02   1.71594354E-06
   7.51800016E-02   1.65942072E-06
   7.53900036E-02   1.58468742E-06
   7.55999982E-02   1.49166385E-06
   7.58100003E-02   1.38039809E-06
   7.60200024E-02   1.25106953E-06
   7.62299970E-02   1.10399242E-06
   7.64399990E-02   9.39616029E-07
   7.66500011E-02   7.58528188E-07
   7.68600032E-02   5.61458307E-07
   7.70699978E-02   3.49279361E-07
   7.72799999E-02   1.23000191E-07
   7.74900019E-02  -1.16233743E-07
   7.76999965E-02  -3.67135755E-07
   7.79099986E-02  -6.28287466E-07
   7.81200007E-02  -8.98143867E-07
   7.83300027E-02  -1.17503396E-06
   7.85399973E-02  -1.45716865E-06
   7.87499994E-02  -1.74264881E-06
   7.89600015E-02  -2.02946330E-06
   7.91700035E-02  -2.31550393E-06
   7.93799981E-02  -2.59858575E-06
   7.95900002E-02  -2.87644525E-06
   7.98000023E-02  -3.14674412E-06
   8.00099969E-02  -3.40709471E-06
   8.02199990E-02  -3.65506753E-06
   8.04300010E-02  -3.88820217E-06
   8.06400031E-02  -4.10402117E-06
   8.08499977E-02  -4.30004047E-06
   8.10599998E-02  -4.47378216E-06
   8.12700018E-02  -4.62279968E-06
   8.14799964E-02  -4.74469107E-06
   8.16899985E-02  -4.83710437E-06
   8.19000006E-02  -4.89776039E-06
   8.21100026E-02  -4.92446588E-06
   8.23199973E-02  -4.91512583E-06
   8.25299993E-02  -4.86776617E-06
   8.27400014E-02  -4.78054380E-06
   8.29500034E-02  -4.65176299E-06
   8.31599981E-02  -4.47988532E-06
   8.33700001E-02  -4.26355109E-06
   8.35800022E-02  -4.00159388E-06
   8.37899968E-02  -3.69304757E-06
   8.39999989E-02  -3.33716207E-06
   8.42100009E-02  -2.93341168E-06
   8.44200030E-02  -2.48150718E-06
   8.46299976E-02  -1.98141879E-06
   8.48399997E-02  -1.43336899E-06
   8.50500017E-02  -8.37841355E-07
   8.52599964E-02  -1.95598531E-07
   8.54699984E-02   4.92317668E-07
   8.56800005E-02   1.22458459E-06
   8.58900025E-02   1.99958777E-06
   8.60999972E-02   2.81542407E-06
   8.63099992E-02   3.66990048E-06
   8.65200013E-02   4.56053112E-06
   8.67300034E-02   5.48453954E-06
   8.69399980E-02   6.43886369E-06
   8.71500000E-02   7.42016027E-06
   8.73600021E-02   8.42481131E-06
   8.75699967E-02   9.44892599E-06
   8.77799988E-02   1.04883584E-05
   8.79900008E-02   1.15387065E-05
   8.82000029E-02   1.25953266E-05
   8.84099975E-02   1.36533572E-05
   8.86199996E-02   1.47077189E-05
   8.88300017E-02   1.57531340E-05
   8.90400037E-02   1.67841499E-05
   8.92499983E-02   1.77951533E-05
   8.94600004E-02   1.87803817E-05
   8.96700025E-02   1.97339432E-05
   8.98799971E-02   2.06498462E-05
   9.00899991E-02   2.15220189E-05
   9.03000012E-02   2.23443312E-05
   9.05100033E-02   2.31106133E-05
   9.07199979E-02   2.38146858E-05
   9.09299999E-02   2.44503881E-05
   9.11400020E-02   2.50115845E-05
   9.13499966E-02   2.54922143E-05
   9.15599987E-02   2.58863020E-05
   9.17700008E-02   2.61879832E-05
   9.19800028E-02   2.63915445E-05
   9.21899974E-02   2.64914343E-05
   9.23999995E-02   2.64823011E-05
   9.26100016E-02   2.63590082E-05
   9.28200036E-02   2.61166460E-05
   9.30299982E-02   2.57506126E-05
   9.32400003E-02   2.52566024E-05
   9.34500024E-02   2.46306172E-05
   9.36599970E-02   2.38689954E-05
   9.38699991E-02   2.29684683E-05
   9.40800011E-02   2.19261783E-05
   9.42900032E-02   2.07396533E-05
   9.44999978E-02   1.94068580E-05
   9.47099999E-02   1.79262333E-05
   9.49200019E-02   1.62966990E-05
   9.51299965E-02   1.45176718E-05
   9.53399986E-02   1.25890792E-05
   9.55500007E-02   1.05114032E-05
   9.57600027E-02   8.28565408E-06
   9.59699973E-02   5.91340813E-06
   9.61799994E-02   3.39680014E-06
   9.63900015E-02   7.38589563E-07
   9.66000035E-02  -2.05785136E-06
   9.68099982E-02  -4.98859026E-06
   9.70200002E-02  -8.04906358E-06
   9.72300023E-02  -1.12340776E-05
   9.74399969E-02  -1.45378062E-05
   9.76499990E-02  -1.79537910E-05
   9.78600010E-02  -2.14749434E-05
   9.80700031E-02  -2.50935445E-05
   9.82799977E-02  -2.88012343E-05
   9.84899998E-02  -3.25890323E-05
   9.87000018E-02  -3.64473308E-05
   9.89099964E-02  -4.03658814E-05
   9.91199985E-02  -4.43338577E-05
   9.93300006E-02  -4.83398289E-05
   9.95400026E-02  -5.23717536E-05
   9.97499973E-02  -5.64170114E-05
   9.99599993E-02  -6.04624402E-05
  0.100170001      -6.44943138E-05
  0.100380003      -6.84983752E-05
  0.100589998      -7.24599158E-05
  0.100800000      -7.63636999E-05
  0.101010002      -8.01940623E-05
  0.101219997      -8.39348941E-05
  0.101429999      -8.75696933E-05
  0.101640001      -9.10815943E-05
  0.101850003      -9.44533967E-05
  0.102059998      -9.76676238E-05
  0.102270000      -1.00706537E-04
  0.102480002      -1.03552185E-04
  0.102689996      -1.06186460E-04
  0.102899998      -1.08591121E-04
  0.103110000      -1.10747853E-04
  0.103320003      -1.12638329E-04
  0.103529997      -1.14244256E-04
  0.103739999      -1.15547431E-04
  0.103950001      -1.16529802E-04
  0.104160003      -1.17173513E-04
  0.104369998      -1.17460986E-04
  0.104580000      -1.17374977E-04
  0.104790002      -1.16898656E-04
  0.104999997      -1.16015632E-04
  0.105209999      -1.14710099E-04
  0.105420001      -1.12966816E-04
  0.105630003      -1.10771252E-04
  0.105839998      -1.08109671E-04
  0.106050000      -1.04969149E-04
  0.106260002      -1.01337653E-04
  0.106470004      -9.72042180E-05
  0.106679998      -9.25589047E-05
  0.106890000      -8.73929021E-05
  0.107100002      -8.16986576E-05
  0.107309997      -7.54698922E-05
  0.107519999      -6.87017746E-05
  0.107730001      -6.13909724E-05
  0.107940003      -5.35356558E-05
  0.108149998      -4.51355590E-05
  0.108360000      -3.61921811E-05
  0.108570002      -2.67087835E-05
  0.108779997      -1.66904374E-05
  0.108989999      -6.14412011E-06
  0.109200001       4.92121762E-06
  0.109410003       1.64945759E-05
  0.109619997       2.85629594E-05
  0.109830000       4.11112269E-05
  0.110040002       5.41219742E-05
  0.110250004       6.75756164E-05
  0.110459998       8.14503728E-05
  0.110670000       9.57220618E-05
  0.110880002       1.10364279E-04
  0.111089997       1.25348248E-04
  0.111299999       1.40642820E-04
  0.111510001       1.56214548E-04
  0.111720003       1.72027532E-04
  0.111929998       1.88043632E-04
  0.112140000       2.04222306E-04
  0.112350002       2.20520742E-04
  0.112559997       2.36893975E-04
  0.112769999       2.53294595E-04
  0.112980001       2.69672979E-04
  0.113190003       2.85977527E-04
  0.113399997       3.02154542E-04
  0.113609999       3.18148290E-04
  0.113820001       3.33901204E-04
  0.114030004       3.49353882E-04
  0.114239998       3.64445092E-04
  0.114450000       3.79111996E-04
  0.114660002       3.93290189E-04
  0.114869997       4.06914187E-04
  0.115079999       4.19917080E-04
  0.115290001       4.32230678E-04
  0.115500003       4.43786092E-04
  0.115709998       4.54513589E-04
  0.115920000       4.64342738E-04
  0.116130002       4.73202672E-04
  0.116339996       4.81022231E-04
  0.116549999       4.87730169E-04
  0.116760001       4.93255327E-04
  0.116970003       4.97526722E-04
  0.117179997       5.00474067E-04
  0.117389999       5.02027571E-04
  0.117600001       5.02118492E-04
  0.117810003       5.00678958E-04
  0.118019998       4.97642788E-04
  0.118230000       4.92945139E-04
  0.118440002       4.86523058E-04
  0.118649997       4.78315458E-04
  0.118859999       4.68263635E-04
  0.119070001       4.56311274E-04
  0.119280003       4.42404824E-04
  0.119489998       4.26493643E-04
  0.119700000       4.08530177E-04
  0.119910002       3.88470391E-04
  0.120119996       3.66273802E-04
  0.120329998       3.41903738E-04
  0.120540000       3.15327634E-04
  0.120750003       2.86517257E-04
  0.120959997       2.55448802E-04
  0.121169999       2.22103132E-04
  0.121380001       1.86466103E-04
  0.121590003       1.48528590E-04
  0.121799998       1.08286840E-04
  0.122010000       6.57425044E-05
  0.122220002       2.09028385E-05
  0.122429997      -2.62190879E-05
  0.122639999      -7.56041918E-05
  0.122850001      -1.27227322E-04
  0.123060003      -1.81057127E-04
  0.123269998      -2.37055807E-04
  0.123480000      -2.95179110E-04
  0.123690002      -3.55376251E-04
  0.123899996      -4.17589763E-04
  0.124109998      -4.81755531E-04
  0.124320000      -5.47802600E-04
  0.124530002      -6.15653291E-04
  0.124739997      -6.85222854E-04
  0.124949999      -7.56419904E-04
  0.125159994      -8.29146185E-04
  0.125369996      -9.03296401E-04
  0.125579998      -9.78758791E-04
  0.125790000      -1.05541490E-03
  0.126000002      -1.13313913E-03
  0.126210004      -1.21179956E-03
  0.126420006      -1.29125791E-03
  0.126629993      -1.37136958E-03
  0.126839995      -1.45198358E-03
  0.127049997      -1.53294310E-03
  0.127260000      -1.61408528E-03
  0.127470002      -1.69524178E-03
  0.127680004      -1.77623890E-03
  0.127890006      -1.85689726E-03
  0.128099993      -1.93703314E-03
  0.128309995      -2.01645819E-03
  0.128519997      -2.09497940E-03
  0.128729999      -2.17239955E-03
  0.128940001      -2.24851794E-03
  0.129150003      -2.32313015E-03
  0.129360005      -2.39602919E-03
  0.129570007      -2.46700528E-03
  0.129779994      -2.53584585E-03
  0.129989997      -2.60233693E-03
  0.130199999      -2.66626291E-03
  0.130410001      -2.72740750E-03
  0.130620003      -2.78555299E-03
  0.130830005      -2.84048216E-03
  0.131040007      -2.89197802E-03
  0.131249994      -2.93982401E-03
  0.131459996      -2.98380456E-03
  0.131669998      -3.02370708E-03
  0.131880000      -3.05932015E-03
  0.132090002      -3.09043517E-03
  0.132300004      -3.11684702E-03
  0.132510006      -3.13835382E-03
  0.132719994      -3.15475836E-03
  0.132929996      -3.16586741E-03
  0.133139998      -3.17149400E-03
  0.133350000      -3.17145651E-03
  0.133560002      -3.16557917E-03
  0.133770004      -3.15369340E-03
  0.133980006      -3.13563738E-03
  0.134189993      -3.11125698E-03
  0.134399995      -3.08040739E-03
  0.134609997      -3.04295123E-03
  0.134819999      -2.99876020E-03
  0.135030001      -2.94771604E-03
  0.135240003      -2.88971048E-03
  0.135450006      -2.82464572E-03
  0.135659993      -2.75243493E-03
  0.135869995      -2.67300173E-03
  0.136079997      -2.58628256E-03
  0.136289999      -2.49222526E-03
  0.136500001      -2.39079050E-03
  0.136710003      -2.28195079E-03
  0.136920005      -2.16569239E-03
  0.137130007      -2.04201508E-03
  0.137339994      -1.91093178E-03
  0.137549996      -1.77246961E-03
  0.137759998      -1.62666943E-03
  0.137970001      -1.47358701E-03
  0.138180003      -1.31329219E-03
  0.138390005      -1.14586973E-03
  0.138600007      -9.71419271E-04
  0.138809994      -7.90055434E-04
  0.139019996      -6.01907901E-04
  0.139229998      -4.07121493E-04
  0.139440000      -2.05856195E-04
  0.139650002       1.71273973E-06
  0.139860004       2.15394786E-04
  0.140070006       4.34984511E-04
  0.140279993       6.60261256E-04
  0.140489995       8.90989089E-04
  0.140699998       1.12691708E-03
  0.140910000       1.36777991E-03
  0.141120002       1.61329727E-03
  0.141330004       1.86317472E-03
  0.141540006       2.11710366E-03
  0.141749993       2.37476127E-03
  0.141959995       2.63581169E-03
  0.142169997       2.89990520E-03
  0.142379999       3.16667953E-03
  0.142590001       3.43575957E-03
  0.142800003       3.70675838E-03
  0.143010005       3.97927640E-03
  0.143220007       4.25290363E-03
  0.143429995       4.52721864E-03
  0.143639997       4.80179023E-03
  0.143849999       5.07617742E-03
  0.144060001       5.34992991E-03
  0.144270003       5.62258996E-03
  0.144480005       5.89369005E-03
  0.144690007       6.16275659E-03
  0.144899994       6.42930949E-03
  0.145109996       6.69286214E-03
  0.145319998       6.95292326E-03
  0.145530000       7.20899785E-03
  0.145740002       7.46058673E-03
  0.145950004       7.70718744E-03
  0.146160007       7.94829708E-03
  0.146369994       8.18341132E-03
  0.146579996       8.41202401E-03
  0.146789998       8.63363221E-03
  0.147000000       8.84773117E-03
  0.147210002       9.05382168E-03
  0.147420004       9.25140735E-03
  0.147630006       9.43999644E-03
  0.147839993       9.61910002E-03
  0.148049995       9.78824031E-03
  0.148259997       9.94694233E-03
  0.148469999       1.00947414E-02
  0.148680001       1.02311810E-02
  0.148890004       1.03558172E-02
  0.149100006       1.04682148E-02
  0.149309993       1.05679519E-02
  0.149519995       1.06546208E-02
  0.149729997       1.07278265E-02
  0.149939999       1.07871890E-02
  0.150150001       1.08323442E-02
  0.150360003       1.08629456E-02
  0.150570005       1.08786654E-02
  0.150780007       1.08791916E-02
  0.150989994       1.08642345E-02
  0.151199996       1.08335251E-02
  0.151409999       1.07868146E-02
  0.151620001       1.07238768E-02
  0.151830003       1.06445057E-02
  0.152040005       1.05485246E-02
  0.152250007       1.04357759E-02
  0.152459994       1.03061311E-02
  0.152669996       1.01594832E-02
  0.152879998       9.99575295E-03
  0.153090000       9.81488917E-03
  0.153300002       9.61686764E-03
  0.153510004       9.40169115E-03
  0.153720006       9.16938949E-03
  0.153929994       8.92002415E-03
  0.154139996       8.65368359E-03
  0.154349998       8.37048516E-03
  0.154560000       8.07057507E-03
  0.154770002       7.75413075E-03
  0.154980004       7.42135616E-03
  0.155190006       7.07248924E-03
  0.155399993       6.70779543E-03
  0.155609995       6.32756995E-03
  0.155819997       5.93213784E-03
  0.156029999       5.52185485E-03
  0.156240001       5.09710377E-03
  0.156450003       4.65829903E-03
  0.156660005       4.20587976E-03
  0.156869993       3.74031672E-03
  0.157079995       3.26210819E-03
  0.157289997       2.77177943E-03
  0.157499999       2.26988224E-03
  0.157710001       1.75699545E-03
  0.157920003       1.23372325E-03
  0.158130005       7.00695091E-04
  0.158340007       1.58563766E-04
  0.158549994      -3.91994254E-04
  0.158759996      -9.50278773E-04
  0.158969998      -1.51556800E-03
  0.159180000      -2.08711973E-03
  0.159390002      -2.66417209E-03
  0.159600005      -3.24594486E-03
  0.159810007      -3.83163872E-03
  0.160019994      -4.42044018E-03
  0.160229996      -5.01151942E-03
  0.160439998      -5.60403196E-03
  0.160650000      -6.19711960E-03
  0.160860002      -6.78991340E-03
  0.161070004      -7.38153560E-03
  0.161280006      -7.97109865E-03
  0.161489993      -8.55770521E-03
  0.161699995      -9.14045610E-03
  0.161909997      -9.71844140E-03
  0.162120000      -1.02907540E-02
  0.162330002      -1.08564850E-02
  0.162540004      -1.14147225E-02
  0.162750006      -1.19645568E-02
  0.162959993      -1.25050806E-02
  0.163169995      -1.30353933E-02
  0.163379997      -1.35545991E-02
  0.163589999      -1.40618123E-02
  0.163800001      -1.45561555E-02
  0.164010003      -1.50367627E-02
  0.164220005      -1.55027807E-02
  0.164430007      -1.59533713E-02
  0.164639995      -1.63877103E-02
  0.164849997      -1.68049969E-02
  0.165059999      -1.72044449E-02
  0.165270001      -1.75852887E-02
  0.165480003      -1.79467872E-02
  0.165690005      -1.82882268E-02
  0.165900007      -1.86089128E-02
  0.166109994      -1.89081840E-02
  0.166319996      -1.91854015E-02
  0.166529998      -1.94399673E-02
  0.166740000      -1.96713060E-02
  0.166950002      -1.98788773E-02
  0.167160004      -2.00621784E-02
  0.167370006      -2.02207398E-02
  0.167579994      -2.03541350E-02
  0.167789996      -2.04619672E-02
  0.167999998      -2.05438789E-02
  0.168210000      -2.05995589E-02
  0.168420002      -2.06287336E-02
  0.168630004      -2.06311736E-02
  0.168840006      -2.06066910E-02
  0.169049993      -2.05551423E-02
  0.169259995      -2.04764232E-02
  0.169469997      -2.03704815E-02
  0.169679999      -2.02373061E-02
  0.169890001      -2.00769417E-02
  0.170100003      -1.98894721E-02
  0.170310006      -1.96750220E-02
  0.170519993      -1.94337666E-02
  0.170729995      -1.91659331E-02
  0.170939997      -1.88717917E-02
  0.171149999      -1.85516570E-02
  0.171360001      -1.82058867E-02
  0.171570003      -1.78348925E-02
  0.171780005      -1.74391307E-02
  0.171990007      -1.70190986E-02
  0.172199994      -1.65753402E-02
  0.172409996      -1.61084346E-02
  0.172619998      -1.56190163E-02
  0.172830001      -1.51077509E-02
  0.173040003      -1.45753501E-02
  0.173250005      -1.40225654E-02
  0.173460007      -1.34501802E-02
  0.173669994      -1.28590185E-02
  0.173879996      -1.22499419E-02
  0.174089998      -1.16238408E-02
  0.174300000      -1.09816436E-02
  0.174510002      -1.03243096E-02
  0.174720004      -9.65281855E-03
  0.174930006      -8.96818843E-03
  0.175139993      -8.27145763E-03
  0.175349995      -7.56368926E-03
  0.175559998      -6.84597110E-03
  0.175770000      -6.11940399E-03
  0.175980002      -5.38510969E-03
  0.176190004      -4.64422535E-03
  0.176400006      -3.89790745E-03
  0.176609993      -3.14732222E-03
  0.176819995      -2.39364244E-03
  0.177029997      -1.63804251E-03
  0.177239999      -8.81701941E-04
  0.177450001      -1.25813545E-04
  0.177660003       6.28441107E-04
  0.177870005       1.37988012E-03
  0.178080007       2.12732004E-03
  0.178289995       2.86958576E-03
  0.178499997       3.60551383E-03
  0.178709999       4.33395617E-03
  0.178920001       5.05377026E-03
  0.179130003       5.76383946E-03
  0.179340005       6.46305922E-03
  0.179550007       7.15033663E-03
  0.179759994       7.82460347E-03