   0.00000000       0.00000000    
   2.09999998E-04   0.00000000    
   4.19999997E-04   0.00000000    
   6.30000024E-04   0.00000000    
   8.39999993E-04   2.56355369E-18
   1.04999996E-03   2.61779768E-17
   1.26000005E-03   1.44331251E-16
   1.47000002E-03   5.72811854E-16
   1.67999999E-03   1.83613704E-15
   1.88999996E-03   5.05316817E-15
   2.09999993E-03   1.23918176E-14
   2.30999989E-03   2.77532971E-14
   2.52000010E-03   5.77574216E-14
   2.73000007E-03   1.13112272E-13
   2.94000003E-03   2.10463184E-13
   3.15000000E-03   3.74828884E-13
   3.35999997E-03   6.42743617E-13
   3.56999994E-03   1.06623683E-12
   3.77999991E-03   1.71779149E-12
   3.99000011E-03   2.69643205E-12
   4.19999985E-03   4.13509765E-12
   4.41000005E-03   6.20945569E-12
   4.61999979E-03   9.14832966E-12
   4.82999999E-03   1.32458688E-11
   5.04000019E-03   1.88756181E-11
   5.24999993E-03   2.65065869E-11
   5.46000013E-03   3.67214176E-11
   5.66999987E-03   5.02366794E-11
   5.88000007E-03   6.79252557E-11
   6.08999981E-03   9.08408557E-11
   6.30000001E-03   1.20244315E-10
   6.51000021E-03   1.57631574E-10
   6.71999995E-03   2.04762957E-10
   6.93000015E-03   2.63693123E-10
   7.13999989E-03   3.36801226E-10
   7.35000009E-03   4.26820579E-10
   7.55999982E-03   5.36866662E-10
   7.77000003E-03   6.70461964E-10
   7.98000023E-03   8.31557934E-10
   8.19000043E-03   1.02455044E-09
   8.39999970E-03   1.25428856E-09
   8.60999990E-03   1.52607471E-09
   8.82000010E-03   1.84565263E-09
   9.03000031E-03   2.21918417E-09
   9.23999958E-03   2.65320899E-09
   9.44999978E-03   3.15458704E-09
   9.65999998E-03   3.73042131E-09
   9.87000018E-03   4.38795800E-09
   1.00800004E-02   5.13446086E-09
   1.02899997E-02   5.97705707E-09
   1.04999999E-02   6.92255897E-09
   1.07100001E-02   7.97724820E-09
   1.09200003E-02   9.14663012E-09
   1.11300005E-02   1.04351532E-08
   1.13399997E-02   1.18458967E-08
   1.15499999E-02   1.33802187E-08
   1.17600001E-02   1.50373705E-08
   1.19700003E-02   1.68140879E-08
   1.21799996E-02   1.87041351E-08
   1.23899998E-02   2.06978381E-08
   1.26000000E-02   2.27815846E-08
   1.28100002E-02   2.49373127E-08
   1.30200004E-02   2.71419829E-08
   1.32299997E-02   2.93670421E-08
   1.34399999E-02   3.15779154E-08
   1.36500001E-02   3.37334889E-08
   1.38600003E-02   3.57856251E-08
   1.40699996E-02   3.76787312E-08
   1.42799998E-02   3.93493664E-08
   1.44900000E-02   4.07259186E-08
   1.47000002E-02   4.17283701E-08
   1.49100004E-02   4.22681659E-08
   1.51199996E-02   4.22481854E-08
   1.53299998E-02   4.15628598E-08
   1.55400001E-02   4.00984312E-08
   1.57500003E-02   3.77333897E-08
   1.59600005E-02   3.43390951E-08
   1.61700007E-02   2.97805904E-08
   1.63800009E-02   2.39176252E-08
   1.65899992E-02   1.66059397E-08
   1.67999994E-02   7.69874386E-09
   1.70099996E-02  -2.95152125E-09
   1.72199998E-02  -1.54911852E-08
   1.74300000E-02  -3.00630809E-08
   1.76400002E-02  -4.68040042E-08
   1.78500004E-02  -6.58419808E-08
   1.80600006E-02  -8.72932375E-08
   1.82700008E-02  -1.11258927E-07
   1.84799992E-02  -1.37821715E-07
   1.86899994E-02  -1.67042060E-07
   1.88999996E-02  -1.98954510E-07
   1.91099998E-02  -2.33563654E-07
   1.93200000E-02  -2.70840161E-07
   1.95300002E-02  -3.10716757E-07
   1.97400004E-02  -3.53084033E-07
   1.99500006E-02  -3.97786636E-07
   2.01600008E-02  -4.44619332E-07
   2.03699991E-02  -4.93323284E-07
   2.05799993E-02  -5.43582757E-07
   2.07899995E-02  -5.95022016E-07
   2.09999997E-02  -6.47202569E-07
   2.12099999E-02  -6.99621296E-07
   2.14200001E-02  -7.51708569E-07
   2.16300003E-02  -8.02827515E-07
   2.18400005E-02  -8.52273843E-07
   2.20500007E-02  -8.99276358E-07
   2.22600009E-02  -9.42998497E-07
   2.24699993E-02  -9.82540996E-07
   2.26799995E-02  -1.01694502E-06
   2.28899997E-02  -1.04519711E-06
   2.30999999E-02  -1.06623474E-06
   2.33100001E-02  -1.07895323E-06
   2.35200003E-02  -1.08221400E-06
   2.37300005E-02  -1.07485334E-06
   2.39400007E-02  -1.05569347E-06
   2.41500009E-02  -1.02355443E-06
   2.43599992E-02  -9.77266382E-07
   2.45699994E-02  -9.15684041E-07
   2.47799996E-02  -8.37701748E-07
   2.49899998E-02  -7.42269435E-07
   2.52000000E-02  -6.28409623E-07
   2.54100002E-02  -4.95235440E-07
   2.56200004E-02  -3.41968899E-07
   2.58300006E-02  -1.67959371E-07
   2.60400008E-02   2.72967160E-08
   2.62499992E-02   2.44136857E-07
   2.64599994E-02   4.82713574E-07
   2.66699996E-02   7.42975374E-07
   2.68799998E-02   1.02464855E-06
   2.70900000E-02   1.32721982E-06
   2.73000002E-02   1.64992014E-06
   2.75100004E-02   1.99170972E-06
   2.77200006E-02   2.35126504E-06
   2.79300008E-02   2.72696661E-06
   2.81399991E-02   3.11689109E-06
   2.83499993E-02   3.51880385E-06
   2.85599995E-02   3.93015443E-06
   2.87699997E-02   4.34807635E-06
   2.89799999E-02   4.76938976E-06
   2.91900001E-02   5.19060541E-06
   2.94000003E-02   5.60793524E-06
   2.96100006E-02   6.01730471E-06
   2.98200008E-02   6.41437055E-06
   3.00299991E-02   6.79453979E-06
   3.02399993E-02   7.15299666E-06
   3.04499995E-02   7.48473076E-06
   3.06599997E-02   7.78456979E-06
   3.08699999E-02   8.04721731E-06
   3.10800001E-02   8.26729320E-06
   3.12899984E-02   8.43938142E-06
   3.15000005E-02   8.55807048E-06
   3.17099988E-02   8.61801163E-06
   3.19200009E-02   8.61397348E-06
   3.21299993E-02   8.54089285E-06
   3.23400013E-02   8.39393942E-06
   3.25499997E-02   8.16857300E-06
   3.27600017E-02   7.86060627E-06
   3.29700001E-02   7.46626893E-06
   3.31799984E-02   6.98226449E-06
   3.33900005E-02   6.40583539E-06
   3.35999988E-02   5.73482384E-06
   3.38100009E-02   4.96772827E-06
   3.40199992E-02   4.10376015E-06
   3.42300013E-02   3.14289287E-06
   3.44399996E-02   2.08591246E-06
   3.46500017E-02   9.34458683E-07
   3.48600000E-02  -3.08935540E-07
   3.50699984E-02  -1.64081712E-06
   3.52800004E-02  -3.05678327E-06
   3.54899988E-02  -4.55146892E-06
   3.57000008E-02  -6.11853693E-06
   3.59099992E-02  -7.75067656E-06
   3.61200012E-02  -9.43961368E-06
   3.63299996E-02  -1.11761265E-05
   3.65400016E-02  -1.29500804E-05
   3.67500000E-02  -1.47504552E-05
   3.69599983E-02  -1.65654037E-05
   3.71700004E-02  -1.83823013E-05
   3.73799987E-02  -2.01878138E-05
   3.75900008E-02  -2.19679805E-05
   3.77999991E-02  -2.37082950E-05
   3.80100012E-02  -2.53938015E-05
   3.82199995E-02  -2.70092041E-05
   3.84300016E-02  -2.85389669E-05
   3.86399999E-02  -2.99674430E-05
   3.88499983E-02  -3.12789962E-05
   3.90600003E-02  -3.24581233E-05
   3.92699987E-02  -3.34896031E-05
   3.94800007E-02  -3.43586180E-05
   3.96899991E-02  -3.50509035E-05
   3.99000011E-02  -3.55528791E-05
   4.01099995E-02  -3.58517937E-05
   4.03200015E-02  -3.59358637E-05
   4.05299999E-02  -3.57943791E-05
   4.07399982E-02  -3.54178774E-05
   4.09500003E-02  -3.47982241E-05
   4.11599986E-02  -3.39287399E-05
   4.13700007E-02  -3.28043061E-05
   4.15799990E-02  -3.14214521E-05
   4.17900011E-02  -2.97784354E-05
   4.19999994E-02  -2.78753287E-05
   4.22100015E-02  -2.57140473E-05
   4.24199998E-02  -2.32983984E-05
   4.26299982E-02  -2.06340974E-05
   4.28400002E-02  -1.77287820E-05
   4.30499986E-02  -1.45920076E-05
   4.32600006E-02  -1.12351972E-05
   4.34699990E-02  -7.67160418E-06
   4.36800011E-02  -3.91624872E-06
   4.38899994E-02   1.41598218E-08
   4.41000015E-02   4.10133089E-06
   4.43099998E-02   8.32551177E-06
   4.45200019E-02   1.26656087E-05
   4.47300002E-02   1.70993426E-05
   4.49399985E-02   2.16034077E-05
   4.51500006E-02   2.61536443E-05
   4.53599989E-02   3.07252194E-05
   4.55700010E-02   3.52928291E-05
   4.57799993E-02   3.98308839E-05
   4.59900014E-02   4.43137214E-05
   4.61999997E-02   4.87158104E-05
   4.64100018E-02   5.30119723E-05
   4.66200002E-02   5.71775672E-05
   4.68299985E-02   6.11886935E-05
   4.70400006E-02   6.50224174E-05
   4.72499989E-02   6.86569256E-05
   4.74600010E-02   7.20716998E-05
   4.76699993E-02   7.52477208E-05
   4.78800014E-02   7.81675408E-05
   4.80899997E-02   8.08154728E-05
   4.83000018E-02   8.31776852E-05
   4.85100001E-02   8.52422600E-05
   4.87199984E-02   8.69992946E-05
   4.89300005E-02   8.84409092E-05
   4.91399989E-02   8.95612757E-05
   4.93500009E-02   9.03565815E-05
   4.95599993E-02   9.08250295E-05
   4.97700013E-02   9.09667433E-05
   4.99799997E-02   9.07836511E-05
   5.01900017E-02   9.02794272E-05
   5.04000001E-02   8.94592740E-05
   5.06099984E-02   8.83298126E-05
   5.08200005E-02   8.68988573E-05
   5.10299988E-02   8.51752047E-05
   5.12400009E-02   8.31684156E-05
   5.14499992E-02   8.08885816E-05
   5.16600013E-02   7.83460273E-05
   5.18699996E-02   7.55510773E-05
   5.20800017E-02   7.25137725E-05
   5.22900000E-02   6.92436006E-05
   5.24999984E-02   6.57492346E-05
   5.27100004E-02   6.20382489E-05
   5.29199988E-02   5.81168570E-05
   5.31300008E-02   5.39897155E-05
   5.33399992E-02   4.96596767E-05
   5.35500012E-02   4.51275919E-05
   5.37599996E-02   4.03921549E-05
   5.39700016E-02   3.54497643E-05
   5.41800000E-02   3.02944209E-05
   5.43899983E-02   2.49176792E-05
   5.46000004E-02   1.93086416E-05
   5.48099987E-02   1.34539559E-05
   5.50200008E-02   7.33792695E-06
   5.52299991E-02   9.42633335E-07
   5.54400012E-02  -5.75189370E-06
   5.56499995E-02  -1.27674302E-05
   5.58600016E-02  -2.01272596E-05
   5.60699999E-02  -2.78558382E-05
   5.62799983E-02  -3.59783953E-05
   5.64900003E-02  -4.45204932E-05
   5.66999987E-02  -5.35075342E-05
   5.69100007E-02  -6.29641872E-05
   5.71199991E-02  -7.29138410E-05
   5.73300011E-02  -8.33779850E-05
   5.75399995E-02  -9.43755294E-05
   5.77500015E-02  -1.05922139E-04
   5.79599999E-02  -1.18029508E-04
   5.81699982E-02  -1.30704691E-04
   5.83800003E-02  -1.43949350E-04
   5.85899986E-02  -1.57759059E-04
   5.88000007E-02  -1.72122556E-04
   5.90099990E-02  -1.87021113E-04
   5.92200011E-02  -2.02427807E-04
   5.94299994E-02  -2.18307003E-04
   5.96400015E-02  -2.34613675E-04
   5.98499998E-02  -2.51292920E-04
   6.00599982E-02  -2.68279604E-04
   6.02700002E-02  -2.85497808E-04
   6.04799986E-02  -3.02860746E-04
   6.06900007E-02  -3.20270425E-04
   6.08999990E-02  -3.37617705E-04
   6.11100011E-02  -3.54782038E-04
   6.13199994E-02  -3.71631933E-04
   6.15300015E-02  -3.88025015E-04
   6.17399998E-02  -4.03808459E-04
   6.19499981E-02  -4.18819516E-04
   6.21600002E-02  -4.32886183E-04
   6.23699985E-02  -4.45827958E-04
   6.25799969E-02  -4.57456772E-04
   6.27899989E-02  -4.67578066E-04
   6.30000010E-02  -4.75991954E-04
   6.32100031E-02  -4.82494681E-04
   6.34199977E-02  -4.86879842E-04
   6.36299998E-02  -4.88940161E-04
   6.38400018E-02  -4.88469086E-04
   6.40499964E-02  -4.85262746E-04
   6.42599985E-02  -4.79121489E-04
   6.44700006E-02  -4.69852181E-04
   6.46800026E-02  -4.57270071E-04
   6.48899972E-02  -4.41200944E-04
   6.50999993E-02  -4.21483244E-04
   6.53100014E-02  -3.97970231E-04
   6.55200034E-02  -3.70532100E-04
   6.57299981E-02  -3.39058082E-04
   6.59400001E-02  -3.03458655E-04
   6.61500022E-02  -2.63667549E-04
   6.63599968E-02  -2.19643625E-04
   6.65699989E-02  -1.71372958E-04
   6.67800009E-02  -1.18870426E-04
   6.69900030E-02  -6.21814761E-05
   6.71999976E-02  -1.38348400E-06
   6.74099997E-02   6.34128664E-05
   6.76200017E-02   1.32062472E-04
   6.78299963E-02   2.04384909E-04
   6.80399984E-02   2.80163687E-04
   6.82500005E-02   3.59146070E-04
   6.84600025E-02   4.41042619E-04
   6.86699972E-02   5.25527401E-04
   6.88799992E-02   6.12238306E-04
   6.90900013E-02   7.00777920E-04
   6.93000033E-02   7.90714344E-04
   6.95099980E-02   8.81582266E-04
   6.97200000E-02   9.72884998E-04
   6.99300021E-02   1.06409600E-03
   7.01399967E-02   1.15466118E-03
   7.03499988E-02   1.24400132E-03
   7.05600008E-02   1.33151514E-03
   7.07700029E-02   1.41658180E-03
   7.09799975E-02   1.49856508E-03
   7.11899996E-02   1.57681585E-03
   7.14000016E-02   1.65067706E-03
   7.16100037E-02   1.71948713E-03
   7.18199983E-02   1.78258389E-03
   7.20300004E-02   1.83930970E-03
   7.22400025E-02   1.88901613E-03
   7.24499971E-02   1.93106756E-03
   7.26599991E-02   1.96484709E-03
   7.28700012E-02   1.98976090E-03
   7.30800033E-02   2.00524274E-03
   7.32899979E-02   2.01075943E-03
   7.34999999E-02   2.00581504E-03
   7.37100020E-02   1.98995625E-03
   7.39199966E-02   1.96277630E-03
   7.41299987E-02   1.92391954E-03
   7.43400007E-02   1.87308621E-03
   7.45500028E-02   1.81003555E-03
   7.47599974E-02   1.73459039E-03
   7.49699995E-02   1.64664001E-03
   7.51800016E-02   1.54614332E-03
   7.53900036E-02   1.43313187E-03
   7.55999982E-02   1.30771194E-03
   7.58100003E-02   1.17006677E-03
   7.60200024E-02   1.02045783E-03
   7.62299970E-02   8.59225576E-04
   7.64399990E-02   6.86790387E-04
   7.66500011E-02   5.03652496E-04
   7.68600032E-02   3.10391479E-04
   7.70699978E-02   1.07665262E-04
   7.72799999E-02  -1.03791601E-04
   7.74900019E-02  -3.23169836E-04
   7.76999965E-02  -5.49588236E-04
   7.79099986E-02  -7.82096584E-04
   7.81200007E-02  -1.01967959E-03
   7.83300027E-02  -1.26126071E-03
   7.85399973E-02  -1.50570739E-03
   7.87499994E-02  -1.75183592E-03
   7.89600015E-02  -1.99841685E-03
   7.91700035E-02  -2.24418077E-03
   7.93799981E-02  -2.48782593E-03
   7.95900002E-02  -2.72802403E-03
   7.98000023E-02  -2.96342745E-03
   8.00099969E-02  -3.19267646E-03
   8.02199990E-02  -3.41440761E-03
   8.04300010E-02  -3.62726045E-03
   8.06400031E-02  -3.82988644E-03
   8.08499977E-02  -4.02095588E-03
   8.10599998E-02  -4.19916725E-03
   8.12700018E-02  -4.36325511E-03
   8.14799964E-02  -4.51199710E-03
   8.16899985E-02  -4.64422302E-03
   8.19000006E-02  -4.75882133E-03
   8.21100026E-02  -4.85474709E-03
   8.23199973E-02  -4.93103079E-03
   8.25299993E-02  -4.98678256E-03
   8.27400014E-02  -5.02120098E-03
   8.29500034E-02  -5.03357826E-03
   8.31599981E-02  -5.02330530E-03
   8.33700001E-02  -4.98987781E-03
   8.35800022E-02  -4.93290089E-03
   8.37899968E-02  -4.85209282E-03
   8.39999989E-02  -4.74728784E-03
   8.42100009E-02  -4.61844029E-03
   8.44200030E-02  -4.46562469E-03
   8.46299976E-02  -4.28903894E-03
   8.48399997E-02  -4.08900529E-03
   8.50500017E-02  -3.86596750E-03
   8.52599964E-02  -3.62049346E-03
   8.54699984E-02  -3.35327140E-03
   8.56800005E-02  -3.06510809E-03
   8.58900025E-02  -2.75692623E-03
   8.60999972E-02  -2.42976146E-03
   8.63099992E-02  -2.08475580E-03
   8.65200013E-02  -1.72315468E-03
   8.67300034E-02  -1.34630012E-03
   8.69399980E-02  -9.55624681E-04
   8.71500000E-02  -5.52644604E-04
   8.73600021E-02  -1.38952091E-04
   8.75699967E-02   2.83792469E-04
   8.77799988E-02   7.13868998E-04
   8.79900008E-02   1.14950642E-03
   8.82000029E-02   1.58889208E-03
   8.84099975E-02   2.03018123E-03
   8.86199996E-02   2.47150660E-03
   8.88300017E-02   2.91098841E-03
   8.90400037E-02   3.34674376E-03
   8.92499983E-02   3.77689744E-03
   8.94600004E-02   4.19959147E-03
   8.96700025E-02   4.61299624E-03
   8.98799971E-02   5.01531735E-03
   9.00899991E-02   5.40480902E-03
   9.03000012E-02   5.77978045E-03
   9.05100033E-02   6.13860507E-03
   9.07199979E-02   6.47973036E-03
   9.09299999E-02   6.80168578E-03
   9.11400020E-02   7.10308971E-03
   9.13499966E-02   7.38265598E-03
   9.15599987E-02   7.63920136E-03
   9.17700008E-02   7.87165016E-03
   9.19800028E-02   8.07904173E-03
   9.21899974E-02   8.26053135E-03
   9.23999995E-02   8.41539633E-03
   9.26100016E-02   8.54303781E-03
   9.28200036E-02   8.64298083E-03
   9.30299982E-02   8.71488266E-03
   9.32400003E-02   8.75852164E-03
   9.34500024E-02   8.77380930E-03
   9.36599970E-02   8.76077730E-03
   9.38699991E-02   8.71958584E-03
   9.40800011E-02   8.65051337E-03
   9.42900032E-02   8.55395477E-03
   9.44999978E-02   8.43041856E-03
   9.47099999E-02   8.28052126E-03
   9.49200019E-02   8.10497999E-03
   9.51299965E-02   7.90460873E-03
   9.53399986E-02   7.68030761E-03
   9.55500007E-02   7.43306009E-03
   9.57600027E-02   7.16392137E-03
   9.59699973E-02   6.87401183E-03
   9.61799994E-02   6.56450586E-03
   9.63900015E-02   6.23662584E-03
   9.66000035E-02   5.89163229E-03
   9.68099982E-02   5.53081324E-03
   9.70200002E-02   5.15547628E-03
   9.72300023E-02   4.76693781E-03
   9.74399969E-02   4.36651474E-03
   9.76499990E-02   3.95551603E-03
   9.78600010E-02   3.53523181E-03
   9.80700031E-02   3.10692680E-03
   9.82799977E-02   2.67183152E-03
   9.84899998E-02   2.23113433E-03
   9.87000018E-02   1.78597448E-03
   9.89099964E-02   1.33743579E-03
   9.91199985E-02   8.86540511E-04
   9.93300006E-02   4.34244168E-04
   9.95400026E-02  -1.85689587E-05
   9.97499973E-02  -4.71089676E-04
   9.99599993E-02  -9.22586245E-04
  0.100170001      -1.37240684E-03
  0.100380003      -1.81998056E-03
  0.100589998      -2.26481794E-03
  0.100800000      -2.70650978E-03
  0.101010002      -3.14472569E-03
  0.101219997      -3.57921282E-03
  0.101429999      -4.00979118E-03
  0.101640001      -4.43634903E-03
  0.101850003      -4.85883979E-03
  0.102059998      -5.27727511E-03
  0.102270000      -5.69171784E-03
  0.102480002      -6.10227650E-03
  0.102689996      -6.50909543E-03
  0.102899998      -6.91234786E-03
  0.103110000      -7.31222611E-03
  0.103320003      -7.70893320E-03
  0.103529997      -8.10267124E-03
  0.103739999      -8.49363487E-03
  0.103950001      -8.88199545E-03
  0.104160003      -9.26789921E-03
  0.104369998      -9.65144858E-03
  0.104580000      -1.00326976E-02
  0.104790002      -1.04116388E-02
  0.104999997      -1.07881958E-02
  0.105209999      -1.11622121E-02
  0.105420001      -1.15334466E-02
  0.105630003      -1.19015612E-02
  0.105839998      -1.22661134E-02
  0.106050000      -1.26265539E-02
  0.106260002      -1.29822148E-02
  0.106470004      -1.33323101E-02
  0.106679998      -1.36759300E-02
  0.106890000      -1.40120350E-02
  0.107100002      -1.43394610E-02
  0.107309997      -1.46569116E-02
  0.107519999      -1.49629638E-02
  0.107730001      -1.52560668E-02
  0.107940003      -1.55345472E-02
  0.108149998      -1.57966148E-02
  0.108360000      -1.60403624E-02
  0.108570002      -1.62637793E-02
  0.108779997      -1.64647605E-02
  0.108989999      -1.66411027E-02
  0.109200001      -1.67905372E-02
  0.109410003      -1.69107188E-02
  0.109619997      -1.69992577E-02
  0.109830000      -1.70537233E-02
  0.110040002      -1.70716569E-02
  0.110250004      -1.70505978E-02
  0.110459998      -1.69880874E-02
  0.110670000      -1.68816969E-02
  0.110880002      -1.67290363E-02
  0.111089997      -1.65277794E-02
  0.111299999      -1.62756760E-02
  0.111510001      -1.59705803E-02
  0.111720003      -1.56104565E-02
  0.111929998      -1.51934056E-02
  0.112140000      -1.47176823E-02
  0.112350002      -1.41817117E-02
  0.112559997      -1.35841090E-02
  0.112769999      -1.29236933E-02
  0.112980001      -1.21995071E-02
  0.113190003      -1.14108296E-02
  0.113399997      -1.05571887E-02
  0.113609999      -9.63837933E-03
  0.113820001      -8.65447335E-03
  0.114030004      -7.60582741E-03
  0.114239998      -6.49309484E-03
  0.114450000      -5.31723397E-03
  0.114660002      -4.07951279E-03
  0.114869997      -2.78151478E-03
  0.115079999      -1.42513984E-03
  0.115290001      -1.26092755E-05
  0.115500003       1.45354040E-03
  0.115709998       2.97045452E-03
  0.115920000       4.53496817E-03
  0.116130002       6.14360673E-03
  0.116339996       7.79259996E-03
  0.116549999       9.47788917E-03
  0.116760001       1.11951353E-02
  0.116970003       1.29397335E-02
  0.117179997       1.47068277E-02
  0.117389999       1.64913256E-02
  0.117600001       1.82879139E-02
  0.117810003       2.00910773E-02
  0.118019998       2.18951181E-02
  0.118230000       2.36941762E-02
  0.118440002       2.54822467E-02
  0.118649997       2.72532124E-02
  0.118859999       2.90008448E-02
  0.119070001       3.07188462E-02
  0.119280003       3.24008651E-02
  0.119489998       3.40405256E-02
  0.119700000       3.56314331E-02
  0.119910002       3.71672101E-02
  0.120119996       3.86415236E-02
  0.120329998       4.00480889E-02
  0.120540000       4.13807146E-02
  0.120750003       4.26332913E-02
  0.120959997       4.37998436E-02
  0.121169999       4.48745228E-02
  0.121380001       4.58516367E-02
  0.121590003       4.67256643E-02
  0.121799998       4.74912636E-02
  0.122010000       4.81432937E-02
  0.122220002       4.86768149E-02
  0.122429997       4.90871072E-02
  0.122639999       4.93696705E-02
  0.122850001       4.95202355E-02
  0.123060003       4.95347641E-02
  0.123269998       4.94094528E-02
  0.123480000       4.91407365E-02
  0.123690002       4.87252772E-02
  0.123899996       4.81599756E-02
  0.124109998       4.74419557E-02
  0.124320000       4.65685502E-02
  0.124530002       4.55373153E-02
  0.124739997       4.43459973E-02
  0.124949999       4.29925360E-02
  0.125159994       4.14750539E-02
  0.125369996       3.97918336E-02
  0.125579998       3.79412919E-02
  0.125790000       3.59219946E-02
  0.126000002       3.37326229E-02
  0.126210004       3.13719511E-02
  0.126420006       2.88388282E-02
  0.126629993       2.61321776E-02
  0.126839995       2.32509654E-02
  0.127049997       2.01941803E-02
  0.127260000       1.69608165E-02
  0.127470002       1.35498671E-02
  0.127680004       9.96029470E-03
  0.127890006       6.19101431E-03
  0.128099993       2.24088668E-03
  0.128309995      -1.89129799E-03
  0.128519997      -6.20684447E-03
  0.128729999      -1.07071558E-02
  0.128940001      -1.53937545E-02
  0.129150003      -2.02682763E-02
  0.129360005      -2.53324956E-02
  0.129570007      -3.05883270E-02
  0.129779994      -3.60378176E-02
  0.129989997      -4.16831598E-02
  0.130199999      -4.75267023E-02
  0.130410001      -5.35709485E-02
  0.130620003      -5.98185435E-02
  0.130830005      -6.62722737E-02
  0.131040007      -7.29350597E-02
  0.131249994      -7.98099637E-02
  0.131459996      -8.69001523E-02
  0.131669998      -9.42089185E-02
  0.131880000     -0.101739623    
  0.132090002     -0.109495737    
  0.132300004     -0.117480792    
  0.132510006     -0.125698373    
  0.132719994     -0.134152070    
  0.132929996     -0.142845482    
  0.133139998     -0.151782230    
  0.133350000     -0.160965875    
  0.133560002     -0.170399934    
  0.133770004     -0.180087820    
  0.133980006     -0.190032855    
  0.134189993     -0.200238228    
  0.134399995     -0.210706964    
  0.134609997     -0.221441910    
  0.134819999     -0.232445672    
  0.135030001     -0.243720695    
  0.135240003     -0.255269110    
  0.135450006     -0.267092764    
  0.135659993     -0.279193252    
  0.135869995     -0.291571707    
  0.136079997     -0.304229081    
  0.136289999     -0.317165822    
  0.136500001     -0.330382049    
  0.136710003     -0.343877465    
  0.136920005     -0.357651263    
  0.137130007     -0.371702313    
  0.137339994     -0.386028916    
  0.137549996     -0.400628984    
  0.137759998     -0.415499866    
  0.137970001     -0.430638522    
  0.138180003     -0.446041286    
  0.138390005     -0.461704105    
  0.138600007     -0.477622390    
  0.138809994     -0.493790954    
  0.139019996     -0.510204256    
  0.139229998     -0.526856124    
  0.139440000     -0.543739974    
  0.139650002     -0.560848653    
  0.139860004     -0.578174591    
  0.140070006     -0.595709860    
  0.140279993     -0.613445759    
  0.140489995     -0.631373465    
  0.140699998     -0.649483621    
  0.140910000     -0.667766333    
  0.141120002     -0.686211526    
  0.141330004     -0.704808712    
  0.141540006     -0.723547101    
  0.141749993     -0.742415428    
  0.141959995     -0.761402249    
  0.142169997     -0.780496061    
  0.142379999     -0.799684763    
  0.142590001     -0.818956375    
  0.142800003     -0.838298559    
  0.143010005     -0.857698917    
  0.143220007     -0.877144992    
  0.143429995     -0.896624148    
  0.143639997     -0.916123748    
  0.143849999     -0.935631275    
  0.144060001     -0.955134034    
  0.144270003     -0.974619508    
  0.144480005     -0.994075358    
  0.144690007      -1.01348925    
  0.144899994      -1.03284895    
  0.145109996      -1.05214262    
  0.145319998      -1.07135856    
  0.145530000      -1.09048522    
  0.145740002      -1.10951149    
  0.145950004      -1.12842667    
  0.146160007      -1.14722002    
  0.146369994      -1.16588140    
  0.146579996      -1.18440092    
  0.146789998      -1.20276940    
  0.147000000      -1.22097790    
  0.147210002      -1.23901796    
  0.147420004      -1.25688148    
  0.147630006      -1.27456105    
  0.147839993      -1.29204977    
  0.148049995      -1.30934083    
  0.148259997      -1.32642853    
  0.148469999      -1.34330738    
  0.148680001      -1.35997260    
  0.148890004      -1.37641978    
  0.149100006      -1.39264512    
  0.149309993      -1.40864551    
  0.149519995      -1.42441845    
  0.149729997      -1.43996155    
  0.149939999      -1.45527363    
  0.150150001      -1.47035336    
  0.150360003      -1.48520052    
  0.150570005      -1.49981511    
  0.150780007      -1.51419783    
  0.150989994      -1.52834976    
  0.151199996      -1.54227245    
  0.151409999      -1.55596817    
  0.151620001      -1.56943941    
  0.151830003      -1.58268905    
  0.152040005      -1.59572065    
  0.152250007      -1.60853803    
  0.152459994      -1.62114525    
  0.152669996      -1.63354707    
  0.152879998      -1.64574826    
  0.153090000      -1.65775394    
  0.153300002      -1.66956985    
  0.153510004      -1.68120158    
  0.153720006      -1.69265521    
  0.153929994      -1.70393682    
  0.154139996      -1.71505296    
  0.154349998      -1.72601020    
  0.154560000      -1.73681521    
  0.154770002      -1.74747467    
  0.154980004      -1.75799549    
  0.155190006      -1.76838458    
  0.155399993      -1.77864909    
  0.155609995      -1.78879571    
  0.155819997      -1.79883158    
  0.156029999      -1.80876362    
  0.156240001      -1.81859863    
  0.156450003      -1.82834351    
  0.156660005      -1.83800507    
  0.156869993      -1.84758973    
  0.157079995      -1.85710394    
  0.157289997      -1.86655414    
  0.157499999      -1.87594664    
  0.157710001      -1.88528728    
  0.157920003      -1.89458203    
  0.158130005      -1.90383661    
  0.158340007      -1.91305637    
  0.158549994      -1.92224669    
  0.158759996      -1.93141282    
  0.158969998      -1.94055951    
  0.159180000      -1.94969153    
  0.159390002      -1.95881343    
  0.159600005      -1.96792936    
  0.159810007      -1.97704327    
  0.160019994      -1.98615909    
  0.160229996      -1.99528074    
  0.160439998      -2.00441146    
  0.160650000      -2.01355481    
  0.160860002      -2.02271366    
  0.161070004      -2.03189158    
  0.161280006      -2.04109073    
  0.161489993      -2.05031395    
  0.161699995      -2.05956411    
  0.161909997      -2.06884313    
  0.162120000      -2.07815361    
  0.162330002      -2.08749771    
  0.162540004      -2.09687734    
  0.162750006      -2.10629511    
  0.162959993      -2.11575222    
  0.163169995      -2.12525105    
  0.163379997      -2.13479304    
  0.163589999      -2.14438057    
  0.163800001      -2.15401506    
  0.164010003      -2.16369820    
  0.164220005      -2.17343235    
  0.164430007      -2.18321848    
  0.164639995      -2.19305849    
  0.164849997      -2.20295453    
  0.165059999      -2.21290827    
  0.165270001      -2.22292137    
  0.165480003      -2.23299551    
  0.165690005      -2.24313283    
  0.165900007      -2.25333476    
  0.166109994      -2.26360369    
  0.166319996      -2.27394152    
  0.166529998      -2.28435040    
  0.166740000      -2.29483175    
  0.166950002      -2.30538797    
  0.167160004      -2.31602097    
  0.167370006      -2.32673264    
  0.167579994      -2.33752513    
  0.167789996      -2.34840035    
  0.167999998      -2.35936069    
  0.168210000      -2.37040758    
  0.168420002      -2.38154340    
  0.168630004      -2.39276981    
  0.168840006      -2.40408850    
  0.169049993      -2.41550159    
  0.169259995      -2.42701030    
  0.169469997      -2.43861628    
  0.169679999      -2.45032120    
  0.169890001      -2.46212626    
  0.170100003      -2.47403264    
  0.170310006      -2.48604178    
  0.170519993      -2.49815392    
  0.170729995      -2.51037002    
  0.170939997      -2.52269101    
  0.171149999      -2.53511667    
  0.171360001      -2.54764700    
  0.171570003      -2.56028223    
  0.171780005      -2.57302165    
  0.171990007      -2.58586454    
  0.172199994      -2.59881020    
  0.172409996      -2.61185718    
  0.172619998      -2.62500405    
  0.172830001      -2.63824916    
  0.173040003      -2.65159035    
  0.173250005      -2.66502476    
  0.173460007      -2.67855000    
  0.173669994      -2.69216275    
  0.173879996      -2.70585990    
  0.174089998      -2.71963739    
  0.174300000      -2.73349118    
  0.174510002      -2.74741721    
  0.174720004      -2.76141071    
  0.174930006      -2.77546668    
  0.175139993      -2.78957963    
  0.175349995      -2.80374432    
  0.175559998      -2.81795454    
  0.175770000      -2.83220434    
  0.175980002      -2.84648728    
  0.176190004      -2.86079693    
  0.176400006      -2.87512612    
  0.176609993      -2.88946795    
  0.176819995      -2.90381479    
  0.177029997      -2.91815948    
  0.177239999      -2.93249416    
  0.177450001      -2.94681096    
  0.177660003      -2.96110177    
  0.177870005      -2.97535896    
  0.178080007      -2.98957419    
  0.178289995      -3.00373960    
  0.178499997      -3.01784658    
  0.178709999      -3.03188705    
  0.178920001      -3.04585314    
  0.179130003      -3.05973673    
  0.179340005      -3.07352972    
  0.179550007      -3.08722401    
  0.179759994      -3.10081196    