   0.00000000       0.00000000    
   2.09999998E-04   0.00000000    
   4.19999997E-04   0.00000000    
   6.30000024E-04   0.00000000    
   8.39999993E-04   5.83523241E-19
   1.04999996E-03   5.99075508E-18
   1.26000005E-03   3.31461065E-17
   1.47000002E-03   1.31735977E-16
   1.67999999E-03   4.21950998E-16
   1.88999996E-03   1.15771351E-15
   2.09999993E-03   2.82389985E-15
   2.30999989E-03   6.27604742E-15
   2.52000010E-03   1.29301163E-14
   2.73000007E-03   2.50078702E-14
   2.94000003E-03   4.58403558E-14
   3.15000000E-03   8.02275997E-14
   3.35999997E-03   1.34846615E-13
   3.56999994E-03   2.18693688E-13
   3.77999991E-03   3.43537915E-13
   3.99000011E-03   5.24355082E-13
   4.19999985E-03   7.79699872E-13
   4.41000005E-03   1.13196648E-12
   4.61999979E-03   1.60747522E-12
   4.82999999E-03   2.23631703E-12
   5.04000019E-03   3.05186887E-12
   5.24999993E-03   4.08990767E-12
   5.46000013E-03   5.38721975E-12
   5.66999987E-03   6.97961437E-12
   5.88000007E-03   8.89924592E-12
   6.08999981E-03   1.11711794E-11
   6.30000001E-03   1.38090928E-11
   6.51000021E-03   1.68100568E-11
   6.71999995E-03   2.01483604E-11
   6.93000015E-03   2.37683900E-11
   7.13999989E-03   2.75765071E-11
   7.35000009E-03   3.14319924E-11
   7.55999982E-03   3.51372438E-11
   7.77000003E-03   3.84272371E-11
   7.98000023E-03   4.09584901E-11
   8.19000043E-03   4.22978180E-11
   8.39999970E-03   4.19111169E-11
   8.60999990E-03   3.91527019E-11
   8.82000010E-03   3.32553637E-11
   9.03000031E-03   2.33220162E-11
   9.23999958E-03   8.31895750E-12
   9.44999978E-03  -1.29279721E-11
   9.65999998E-03  -4.17342098E-11
   9.87000018E-03  -7.95533917E-11
   1.00800004E-02  -1.27969677E-10
   1.02899997E-02  -1.88684346E-10
   1.04999999E-02  -2.63496780E-10
   1.07100001E-02  -3.54278634E-10
   1.09200003E-02  -4.62939770E-10
   1.11300005E-02  -5.91386440E-10
   1.13399997E-02  -7.41470996E-10
   1.15499999E-02  -9.14932685E-10
   1.17600001E-02  -1.11332843E-09
   1.19700003E-02  -1.33795419E-09
   1.21799996E-02  -1.58975721E-09
   1.23899998E-02  -1.86923854E-09
   1.26000000E-02  -2.17634799E-09
   1.28100002E-02  -2.51036991E-09
   1.30200004E-02  -2.86980328E-09
   1.32299997E-02  -3.25223470E-09
   1.34399999E-02  -3.65421027E-09
   1.36500001E-02  -4.07110434E-09
   1.38600003E-02  -4.49698812E-09
   1.40699996E-02  -4.92450392E-09
   1.42799998E-02  -5.34474420E-09
   1.44900000E-02  -5.74714276E-09
   1.47000002E-02  -6.11937612E-09
   1.49100004E-02  -6.44728537E-09
   1.51199996E-02  -6.71481848E-09
   1.53299998E-02  -6.90400004E-09
   1.55400001E-02  -6.99492908E-09
   1.57500003E-02  -6.96581415E-09
   1.59600005E-02  -6.79304524E-09
   1.61700007E-02  -6.45131681E-09
   1.63800009E-02  -5.91378946E-09
   1.65899992E-02  -5.15230925E-09
   1.67999994E-02  -4.13768397E-09
   1.70099996E-02  -2.84001134E-09
   1.72199998E-02  -1.22907828E-09
   1.74300000E-02   7.25183968E-10
   1.76400002E-02   3.05218206E-09
   1.78500004E-02   5.78007286E-09
   1.80600006E-02   8.93511309E-09
   1.82700008E-02   1.25409603E-08
   1.84799992E-02   1.66179071E-08
   1.86899994E-02   2.11820623E-08
   1.88999996E-02   2.62444875E-08
   1.91099998E-02   3.18103091E-08
   1.93200000E-02   3.78777898E-08
   1.95300002E-02   4.44373711E-08
   1.97400004E-02   5.14707388E-08
   1.99500006E-02   5.89498903E-08
   2.01600008E-02   6.68362006E-08
   2.03699991E-02   7.50795692E-08
   2.05799993E-02   8.36175857E-08
   2.07899995E-02   9.23748118E-08
   2.09999997E-02   1.01262152E-07
   2.12099999E-02   1.10176309E-07
   2.14200001E-02   1.18999445E-07
   2.16300003E-02   1.27598938E-07
   2.18400005E-02   1.35827349E-07
   2.20500007E-02   1.43522669E-07
   2.22600009E-02   1.50508612E-07
   2.24699993E-02   1.56595362E-07
   2.26799995E-02   1.61580445E-07
   2.28899997E-02   1.65249872E-07
   2.30999999E-02   1.67379739E-07
   2.33100001E-02   1.67737909E-07
   2.35200003E-02   1.66086195E-07
   2.37300005E-02   1.62182687E-07
   2.39400007E-02   1.55784591E-07
   2.41500009E-02   1.46651203E-07
   2.43599992E-02   1.34547278E-07
   2.45699994E-02   1.19246721E-07
   2.47799996E-02   1.00536390E-07
   2.49899998E-02   7.82203884E-08
   2.52000000E-02   5.21244345E-08
   2.54100002E-02   2.21003020E-08
   2.56200004E-02  -1.19693651E-08
   2.58300006E-02  -5.01662676E-08
   2.60400008E-02  -9.25316073E-08
   2.62499992E-02  -1.39061271E-07
   2.64599994E-02  -1.89701097E-07
   2.66699996E-02  -2.44342232E-07
   2.68799998E-02  -3.02816801E-07
   2.70900000E-02  -3.64893793E-07
   2.73000002E-02  -4.30275406E-07
   2.75100004E-02  -4.98593693E-07
   2.77200006E-02  -5.69407916E-07
   2.79300008E-02  -6.42202394E-07
   2.81399991E-02  -7.16385216E-07
   2.83499993E-02  -7.91287391E-07
   2.85599995E-02  -8.66163305E-07
   2.87699997E-02  -9.40191740E-07
   2.89799999E-02  -1.01247826E-06
   2.91900001E-02  -1.08205802E-06
   2.94000003E-02  -1.14790055E-06
   2.96100006E-02  -1.20891480E-06
   2.98200008E-02  -1.26395605E-06
   3.00299991E-02  -1.31183424E-06
   3.02399993E-02  -1.35132188E-06
   3.04499995E-02  -1.38116513E-06
   3.06599997E-02  -1.40009558E-06
   3.08699999E-02  -1.40684210E-06
   3.10800001E-02  -1.40014538E-06
   3.12899984E-02  -1.37877180E-06
   3.15000005E-02  -1.34152981E-06
   3.17099988E-02  -1.28728641E-06
   3.19200009E-02  -1.21498408E-06
   3.21299993E-02  -1.12365876E-06
   3.23400013E-02  -1.01245826E-06
   3.25499997E-02  -8.80660650E-07
   3.27600017E-02  -7.27692907E-07
   3.29700001E-02  -5.53149050E-07
   3.31799984E-02  -3.56808556E-07
   3.33900005E-02  -1.38653078E-07
   3.35999988E-02   1.01115852E-07
   3.38100009E-02   3.62062053E-07
   3.40199992E-02   6.43500130E-07
   3.42300013E-02   9.44482679E-07
   3.44399996E-02   1.26378984E-06
   3.46500017E-02   1.59992010E-06
   3.48600000E-02   1.95108396E-06
   3.50699984E-02   2.31519948E-06
   3.52800004E-02   2.68989174E-06
   3.54899988E-02   3.07249479E-06
   3.57000008E-02   3.46005481E-06
   3.59099992E-02   3.84933992E-06
   3.61200012E-02   4.23685105E-06
   3.63299996E-02   4.61883656E-06
   3.65400016E-02   4.99131238E-06
   3.67500000E-02   5.35008166E-06
   3.69599983E-02   5.69076337E-06
   3.71700004E-02   6.00882095E-06
   3.73799987E-02   6.29959368E-06
   3.75900008E-02   6.55833492E-06
   3.77999991E-02   6.78025208E-06
   3.80100012E-02   6.96054758E-06
   3.82199995E-02   7.09446522E-06
   3.84300016E-02   7.17733883E-06
   3.86399999E-02   7.20464050E-06
   3.88499983E-02   7.17203420E-06
   3.90600003E-02   7.07542858E-06
   3.92699987E-02   6.91102969E-06
   3.94800007E-02   6.67539643E-06
   3.96899991E-02   6.36549703E-06
   3.99000011E-02   5.97875896E-06
   4.01099995E-02   5.51312360E-06
   4.03200015E-02   4.96709708E-06
   4.05299999E-02   4.33979767E-06
   4.07399982E-02   3.63100253E-06
   4.09500003E-02   2.84118732E-06
   4.11599986E-02   1.97156555E-06
   4.13700007E-02   1.02411980E-06
   4.15799990E-02   1.63262515E-09
   4.17900011E-02  -1.09229950E-06
   4.19999994E-02  -2.25324288E-06
   4.22100015E-02  -3.47592049E-06
   4.24199998E-02  -4.75421439E-06
   4.26299982E-02  -6.08116989E-06
   4.28400002E-02  -7.44900944E-06
   4.30499986E-02  -8.84915517E-06
   4.32600006E-02  -1.02722606E-05
   4.34699990E-02  -1.17082518E-05
   4.36800011E-02  -1.31463712E-05
   4.38899994E-02  -1.45752383E-05
   4.41000015E-02  -1.59829087E-05
   4.43099998E-02  -1.73569533E-05
   4.45200019E-02  -1.86845355E-05
   4.47300002E-02  -1.99524911E-05
   4.49399985E-02  -2.11474362E-05
   4.51500006E-02  -2.22558574E-05
   4.53599989E-02  -2.32642233E-05
   4.55700010E-02  -2.41590878E-05
   4.57799993E-02  -2.49272180E-05
   4.59900014E-02  -2.55556952E-05
   4.61999997E-02  -2.60320485E-05
   4.64100018E-02  -2.63443690E-05
   4.66200002E-02  -2.64814353E-05
   4.68299985E-02  -2.64328337E-05
   4.70400006E-02  -2.61890691E-05
   4.72499989E-02  -2.57416923E-05
   4.74600010E-02  -2.50834055E-05
   4.76699993E-02  -2.42081642E-05
   4.78800014E-02  -2.31112899E-05
   4.80899997E-02  -2.17895449E-05
   4.83000018E-02  -2.02412230E-05
   4.85100001E-02  -1.84662385E-05
   4.87199984E-02  -1.64661651E-05
   4.89300005E-02  -1.42443041E-05
   4.91399989E-02  -1.18057233E-05
   4.93500009E-02  -9.15728469E-06
   4.95599993E-02  -6.30764862E-06
   4.97700013E-02  -3.26729037E-06
   4.99799997E-02  -4.84811302E-08
   5.01900017E-02   3.33473599E-06
   5.04000001E-02   6.86659951E-06
   5.06099984E-02   1.05296713E-05
   5.08200005E-02   1.43049165E-05
   5.10299988E-02   1.81717860E-05
   5.12400009E-02   2.21083101E-05
   5.14499992E-02   2.60912129E-05
   5.16600013E-02   3.00960346E-05
   5.18699996E-02   3.40972692E-05
   5.20800017E-02   3.80685124E-05
   5.22900000E-02   4.19826065E-05
   5.24999984E-02   4.58118229E-05
   5.27100004E-02   4.95280183E-05
   5.29199988E-02   5.31028199E-05
   5.31300008E-02   5.65078008E-05
   5.33399992E-02   5.97146936E-05
   5.35500012E-02   6.26955516E-05
   5.37599996E-02   6.54229443E-05
   5.39700016E-02   6.78701690E-05
   5.41800000E-02   7.00114106E-05
   5.43899983E-02   7.18219380E-05
   5.46000004E-02   7.32782937E-05
   5.48099987E-02   7.43584678E-05
   5.50200008E-02   7.50420513E-05
   5.52299991E-02   7.53103886E-05
   5.54400012E-02   7.51467742E-05
   5.56499995E-02   7.45365396E-05
   5.58600016E-02   7.34671848E-05
   5.60699999E-02   7.19285235E-05
   5.62799983E-02   6.99127850E-05
   5.64900003E-02   6.74146650E-05
   5.66999987E-02   6.44314350E-05
   5.69100007E-02   6.09629606E-05
   5.71199991E-02   5.70117991E-05
   5.73300011E-02   5.25832220E-05
   5.75399995E-02   4.76852001E-05
   5.77500015E-02   4.23284182E-05
   5.79599999E-02   3.65262749E-05
   5.81699982E-02   3.02948501E-05
   5.83800003E-02   2.36528522E-05
   5.85899986E-02   1.66215996E-05
   5.88000007E-02   9.22491927E-06
   5.90099990E-02   1.48909089E-06
   5.92200011E-02  -6.55723852E-06
   5.94299994E-02  -1.48831623E-05
   5.96400015E-02  -2.34556046E-05
   5.98499998E-02  -3.22394371E-05
   6.00599982E-02  -4.11976071E-05
   6.02700002E-02  -5.02912699E-05
   6.04799986E-02  -5.94798803E-05
   6.06900007E-02  -6.87213833E-05
   6.08999990E-02  -7.79723487E-05
   6.11100011E-02  -8.71880911E-05
   6.13199994E-02  -9.63228304E-05
   6.15300015E-02  -1.05329877E-04
   6.17399998E-02  -1.14161732E-04
   6.19499981E-02  -1.22770289E-04
   6.21600002E-02  -1.31106994E-04
   6.23699985E-02  -1.39122989E-04
   6.25799969E-02  -1.46769264E-04
   6.27899989E-02  -1.53996894E-04
   6.30000010E-02  -1.60757147E-04
   6.32100031E-02  -1.67001665E-04
   6.34199977E-02  -1.72682659E-04
   6.36299998E-02  -1.77753143E-04
   6.38400018E-02  -1.82166987E-04
   6.40499964E-02  -1.85879224E-04
   6.42599985E-02  -1.88846199E-04
   6.44700006E-02  -1.91025800E-04
   6.46800026E-02  -1.92377629E-04
   6.48899972E-02  -1.92863256E-04
   6.50999993E-02  -1.92446372E-04
   6.53100014E-02  -1.91093102E-04
   6.55200034E-02  -1.88772174E-04
   6.57299981E-02  -1.85455181E-04
   6.59400001E-02  -1.81116877E-04
   6.61500022E-02  -1.75735287E-04
   6.63599968E-02  -1.69292136E-04
   6.65699989E-02  -1.61772972E-04
   6.67800009E-02  -1.53167493E-04
   6.69900030E-02  -1.43469835E-04
   6.71999976E-02  -1.32678746E-04
   6.74099997E-02  -1.20797951E-04
   6.76200017E-02  -1.07836298E-04
   6.78299963E-02  -9.38080993E-05
   6.80399984E-02  -7.87333411E-05
   6.82500005E-02  -6.26379042E-05
   6.84600025E-02  -4.55537556E-05
   6.86699972E-02  -2.75192178E-05
   6.88799992E-02  -8.57909527E-06
   6.90900013E-02   1.12152384E-05
   6.93000033E-02   3.18056336E-05
   6.95099980E-02   5.31271144E-05
   6.97200000E-02   7.51077678E-05
   6.99300021E-02   9.76688607E-05
   7.01399967E-02   1.20724748E-04
   7.03499988E-02   1.44182995E-04
   7.05600008E-02   1.67944498E-04
   7.07700029E-02   1.91903673E-04
   7.09799975E-02   2.15948661E-04
   7.11899996E-02   2.39961635E-04
   7.14000016E-02   2.63819122E-04
   7.16100037E-02   2.87392468E-04
   7.18199983E-02   3.10548290E-04
   7.20300004E-02   3.33148870E-04
   7.22400025E-02   3.55052995E-04
   7.24499971E-02   3.76116426E-04
   7.26599991E-02   3.96192598E-04
   7.28700012E-02   4.15133545E-04
   7.30800033E-02   4.32790548E-04
   7.32899979E-02   4.49015177E-04
   7.34999999E-02   4.63660166E-04
   7.37100020E-02   4.76580200E-04
   7.39199966E-02   4.87633253E-04
   7.41299987E-02   4.96681372E-04
   7.43400007E-02   5.03591902E-04
   7.45500028E-02   5.08238387E-04
   7.47599974E-02   5.10501908E-04
   7.49699995E-02   5.10272046E-04
   7.51800016E-02   5.07447927E-04
   7.53900036E-02   5.01939445E-04
   7.55999982E-02   4.93668136E-04
   7.58100003E-02   4.82568314E-04
   7.60200024E-02   4.68588289E-04
   7.62299970E-02   4.51690867E-04
   7.64399990E-02   4.31854394E-04
   7.66500011E-02   4.09073546E-04
   7.68600032E-02   3.83360079E-04
   7.70699978E-02   3.54743475E-04
   7.72799999E-02   3.23271233E-04
   7.74900019E-02   2.89009593E-04
   7.76999965E-02   2.52043596E-04
   7.79099986E-02   2.12477375E-04
   7.81200007E-02   1.70434170E-04
   7.83300027E-02   1.26056184E-04
   7.85399973E-02   7.95044034E-05
   7.87499994E-02   3.09581555E-05
   7.89600015E-02  -1.93853648E-05
   7.91700035E-02  -7.13116970E-05
   7.93799981E-02  -1.24590020E-04
   7.95900002E-02  -1.78974064E-04
   7.98000023E-02  -2.34203224E-04
   8.00099969E-02  -2.90003809E-04
   8.02199990E-02  -3.46090412E-04
   8.04300010E-02  -4.02167323E-04
   8.06400031E-02  -4.57930146E-04
   8.08499977E-02  -5.13067585E-04
   8.10599998E-02  -5.67263283E-04
   8.12700018E-02  -6.20197505E-04
   8.14799964E-02  -6.71549293E-04
   8.16899985E-02  -7.20998505E-04
   8.19000006E-02  -7.68227852E-04
   8.21100026E-02  -8.12924933E-04
   8.23199973E-02  -8.54784390E-04
   8.25299993E-02  -8.93510063E-04
   8.27400014E-02  -9.28817084E-04
   8.29500034E-02  -9.60433972E-04
   8.31599981E-02  -9.88104613E-04
   8.33700001E-02  -1.01159001E-03
   8.35800022E-02  -1.03067071E-03
   8.37899968E-02  -1.04514777E-03
   8.39999989E-02  -1.05484528E-03
   8.42100009E-02  -1.05961121E-03
   8.44200030E-02  -1.05931889E-03
   8.46299976E-02  -1.05386844E-03
   8.48399997E-02  -1.04318792E-03
   8.50500017E-02  -1.02723390E-03
   8.52599964E-02  -1.00599218E-03
   8.54699984E-02  -9.79478471E-04
   8.56800005E-02  -9.47738299E-04
   8.58900025E-02  -9.10847681E-04
   8.60999972E-02  -8.68912379E-04
   8.63099992E-02  -8.22068017E-04
   8.65200013E-02  -7.70479382E-04
   8.67300034E-02  -7.14339607E-04
   8.69399980E-02  -6.53869065E-04
   8.71500000E-02  -5.89314615E-04
   8.73600021E-02  -5.20947913E-04
   8.75699967E-02  -4.49064071E-04
   8.77799988E-02  -3.73980060E-04
   8.79900008E-02  -2.96032638E-04
   8.82000029E-02  -2.15576569E-04
   8.84099975E-02  -1.32982372E-04
   8.86199996E-02  -4.86341596E-05
   8.88300017E-02   3.70725174E-05
   8.90400037E-02   1.23733233E-04
   8.92499983E-02   2.10936938E-04
   8.94600004E-02   2.98268540E-04
   8.96700025E-02   3.85311490E-04
   8.98799971E-02   4.71649866E-04
   9.00899991E-02   5.56871237E-04
   9.03000012E-02   6.40568731E-04
   9.05100033E-02   7.22343626E-04
   9.07199979E-02   8.01807502E-04
   9.09299999E-02   8.78584280E-04
   9.11400020E-02   9.52312432E-04
   9.13499966E-02   1.02264679E-03
   9.15599987E-02   1.08926056E-03
   9.17700008E-02   1.15184661E-03
   9.19800028E-02   1.21011899E-03
   9.21899974E-02   1.26381463E-03
   9.23999995E-02   1.31269381E-03
   9.26100016E-02   1.35654188E-03
   9.28200036E-02   1.39516906E-03
   9.30299982E-02   1.42841158E-03
   9.32400003E-02   1.45613216E-03
   9.34500024E-02   1.47821975E-03
   9.36599970E-02   1.49459019E-03
   9.38699991E-02   1.50518469E-03
   9.40800011E-02   1.50997110E-03
   9.42900032E-02   1.50894269E-03
   9.44999978E-02   1.50211737E-03
   9.47099999E-02   1.48953707E-03
   9.49200019E-02   1.47126685E-03
   9.51299965E-02   1.44739379E-03
   9.53399986E-02   1.41802605E-03
   9.55500007E-02   1.38329144E-03
   9.57600027E-02   1.34333665E-03
   9.59699973E-02   1.29832537E-03
   9.61799994E-02   1.24843768E-03
   9.63900015E-02   1.19386788E-03
   9.66000035E-02   1.13482401E-03
   9.68099982E-02   1.07152609E-03
   9.70200002E-02   1.00420485E-03
   9.72300023E-02   9.33100819E-04
   9.74399969E-02   8.58462881E-04
   9.76499990E-02   7.80547271E-04
   9.78600010E-02   6.99616678E-04
   9.80700031E-02   6.15939032E-04
   9.82799977E-02   5.29786921E-04
   9.84899998E-02   4.41436918E-04
   9.87000018E-02   3.51168797E-04
   9.89099964E-02   2.59264954E-04
   9.91199985E-02   1.66009835E-04
   9.93300006E-02   7.16900831E-05
   9.95400026E-02  -2.34059189E-05
   9.97499973E-02  -1.18988559E-04
   9.99599993E-02  -2.14767002E-04
  0.100170001      -3.10448959E-04
  0.100380003      -4.05740691E-04
  0.100589998      -5.00347116E-04
  0.100800000      -5.93971927E-04
  0.101010002      -6.86317217E-04
  0.101219997      -7.77083449E-04
  0.101429999      -8.65969690E-04
  0.101640001      -9.52672970E-04
  0.101850003      -1.03688892E-03
  0.102059998      -1.11831143E-03
  0.102270000      -1.19663344E-03
  0.102480002      -1.27154647E-03
  0.102689996      -1.34274189E-03
  0.102899998      -1.40991074E-03
  0.103110000      -1.47274439E-03
  0.103320003      -1.53093622E-03
  0.103529997      -1.58418121E-03
  0.103739999      -1.63217832E-03
  0.103950001      -1.67463091E-03
  0.104160003      -1.71124877E-03
  0.104369998      -1.74174877E-03
  0.104580000      -1.76585792E-03
  0.104790002      -1.78331439E-03
  0.104999997      -1.79386965E-03
  0.105209999      -1.79729052E-03
  0.105420001      -1.79336150E-03
  0.105630003      -1.78188761E-03
  0.105839998      -1.76269584E-03
  0.106050000      -1.73563848E-03
  0.106260002      -1.70059479E-03
  0.106470004      -1.65747420E-03
  0.106679998      -1.60621828E-03
  0.106890000      -1.54680363E-03
  0.107100002      -1.47924351E-03
  0.107309997      -1.40359055E-03
  0.107519999      -1.31993880E-03
  0.107730001      -1.22842507E-03
  0.107940003      -1.12923142E-03
  0.108149998      -1.02258602E-03
  0.108360000      -9.08764487E-04
  0.108570002      -7.88090809E-04
  0.108779997      -6.60938211E-04
  0.108989999      -5.27728815E-04
  0.109200001      -3.88933899E-04
  0.109410003      -2.45073636E-04
  0.109619997      -9.67160013E-05
  0.109830000       5.55243205E-05
  0.110040002       2.10988233E-04
  0.110250004       3.68973444E-04
  0.110459998       5.28736797E-04
  0.110670000       6.89498032E-04
  0.110880002       8.50442331E-04
  0.111089997       1.01072388E-03
  0.111299999       1.16947084E-03
  0.111510001       1.32578809E-03
  0.111720003       1.47876295E-03
  0.111929998       1.62747048E-03
  0.112140000       1.77097775E-03
  0.112350002       1.90834980E-03
  0.112559997       2.03865510E-03
  0.112769999       2.16097129E-03
  0.112980001       2.27439078E-03
  0.113190003       2.37802765E-03
  0.113399997       2.47102301E-03
  0.113609999       2.55255075E-03
  0.113820001       2.62182462E-03
  0.114030004       2.67810118E-03
  0.114239998       2.72068777E-03
  0.114450000       2.74894782E-03
  0.114660002       2.76230462E-03
  0.114869997       2.76024663E-03
  0.115079999       2.74233287E-03
  0.115290001       2.70819524E-03
  0.115500003       2.65754270E-03
  0.115709998       2.59016524E-03
  0.115920000       2.50593480E-03
  0.116130002       2.40480877E-03
  0.116339996       2.28683138E-03
  0.116549999       2.15213373E-03
  0.116760001       2.00093538E-03
  0.116970003       1.83354330E-03
  0.117179997       1.65035122E-03
  0.117389999       1.45183876E-03
  0.117600001       1.23856904E-03
  0.117810003       1.01118675E-03
  0.118019998       7.70415587E-04
  0.118230000       5.17053995E-04
  0.118440002       2.51970865E-04
  0.118649997      -2.38973807E-05
  0.118859999      -3.09552881E-04
  0.119070001      -6.03940571E-04
  0.119280003      -9.05953522E-04
  0.119489998      -1.21443952E-03
  0.119700000      -1.52820593E-03
  0.119910002      -1.84602558E-03
  0.120119996      -2.16664397E-03
  0.120329998      -2.48878589E-03
  0.120540000      -2.81115901E-03
  0.120750003      -3.13246134E-03
  0.120959997      -3.45138903E-03
  0.121169999      -3.76663893E-03
  0.121380001      -4.07691626E-03
  0.121590003      -4.38093906E-03
  0.121799998      -4.67744516E-03
  0.122010000      -4.96519310E-03
  0.122220002      -5.24296984E-03
  0.122429997      -5.50959259E-03
  0.122639999      -5.76391397E-03
  0.122850001      -6.00482430E-03
  0.123060003      -6.23125350E-03
  0.123269998      -6.44217338E-03
  0.123480000      -6.63660001E-03
  0.123690002      -6.81359414E-03
  0.123899996      -6.97226264E-03
  0.124109998      -7.11175846E-03
  0.124320000      -7.23128114E-03
  0.124530002      -7.33007398E-03
  0.124739997      -7.40742683E-03
  0.124949999      -7.46267242E-03
  0.125159994      -7.49518583E-03
  0.125369996      -7.50438310E-03
  0.125579998      -7.48971989E-03
  0.125790000      -7.45068910E-03
  0.126000002      -7.38681993E-03
  0.126210004      -7.29767513E-03
  0.126420006      -7.18285143E-03
  0.126629993      -7.04197632E-03
  0.126839995      -6.87470753E-03
  0.127049997      -6.68073259E-03
  0.127260000      -6.45977072E-03
  0.127470002      -6.21156674E-03
  0.127680004      -5.93589852E-03
  0.127890006      -5.63257467E-03
  0.128099993      -5.30143781E-03
  0.128309995      -4.94236546E-03
  0.128519997      -4.55527566E-03
  0.128729999      -4.14012605E-03
  0.128940001      -3.69692338E-03
  0.129150003      -3.22572840E-03
  0.129360005      -2.72666127E-03
  0.129570007      -2.19990686E-03
  0.129779994      -1.64572219E-03
  0.129989997      -1.06444920E-03
  0.130199999      -4.56519803E-04
  0.130410001       1.77534705E-04
  0.130620003       8.37069005E-04
  0.130830005       1.52131694E-03
  0.131040007       2.22937623E-03
  0.131249994       2.96020065E-03
  0.131459996       3.71258380E-03
  0.131669998       4.48515220E-03
  0.131880000       5.27634704E-03
  0.132090002       6.08441234E-03
  0.132300004       6.90738577E-03
  0.132510006       7.74308667E-03
  0.132719994       8.58909544E-03
  0.132929996       9.44274850E-03
  0.133139998       1.03011299E-02
  0.133350000       1.11610508E-02
  0.133560002       1.20190484E-02
  0.133770004       1.28713753E-02
  0.133980006       1.37139931E-02
  0.134189993       1.45425573E-02
  0.134399995       1.53524140E-02
  0.134609997       1.61386039E-02
  0.134819999       1.68958586E-02
  0.135030001       1.76185872E-02
  0.135240003       1.83008853E-02
  0.135450006       1.89365353E-02
  0.135659993       1.95190124E-02
  0.135869995       2.00414844E-02
  0.136079997       2.04968248E-02
  0.136289999       2.08776165E-02
  0.136500001       2.11761706E-02
  0.136710003       2.13845242E-02
  0.136920005       2.14944743E-02
  0.137130007       2.14975756E-02
  0.137339994       2.13851724E-02
  0.137549996       2.11484153E-02
  0.137759998       2.07782760E-02
  0.137970001       2.02655792E-02
  0.138180003       1.96010172E-02
  0.138390005       1.87751893E-02
  0.138600007       1.77786201E-02
  0.138809994       1.66017860E-02
  0.139019996       1.52351502E-02
  0.139229998       1.36691937E-02
  0.139440000       1.18944468E-02
  0.139650002       9.90151148E-03
  0.139860004       7.68110901E-03
  0.140070006       5.22410544E-03
  0.140279993       2.52153655E-03
  0.140489995      -4.35353839E-04
  0.140699998      -3.65507090E-03
  0.140910000      -7.14584813E-03
  0.141120002      -1.09156203E-02
  0.141330004      -1.49719808E-02
  0.141540006      -1.93221532E-02
  0.141749993      -2.39729676E-02
  0.141959995      -2.89308373E-02
  0.142169997      -3.42017263E-02
  0.142379999      -3.97911184E-02
  0.142590001      -4.57039997E-02
  0.142800003      -5.19448482E-02
  0.143010005      -5.85176013E-02
  0.143220007      -6.54256493E-02
  0.143429995      -7.26718009E-02
  0.143639997      -8.02582800E-02
  0.143849999      -8.81867260E-02
  0.144060001      -9.64581817E-02
  0.144270003     -0.105073072    
  0.144480005     -0.114031218    
  0.144690007     -0.123331800    
  0.144899994     -0.132973433    
  0.145109996     -0.142954081    
  0.145319998     -0.153271139    
  0.145530000     -0.163921371    
  0.145740002     -0.174900949    
  0.145950004     -0.186205506    
  0.146160007     -0.197830096    
  0.146369994     -0.209769249    
  0.146579996     -0.222016960    
  0.146789998     -0.234566689    
  0.147000000     -0.247411445    
  0.147210002     -0.260543764    
  0.147420004     -0.273955733    
  0.147630006     -0.287639052    
  0.147839993     -0.301585048    
  0.148049995     -0.315784663    
  0.148259997     -0.330228508    
  0.148469999     -0.344906926    
  0.148680001     -0.359809995    
  0.148890004     -0.374927491    
  0.149100006     -0.390249133    
  0.149309993     -0.405764252    
  0.149519995     -0.421462208    
  0.149729997     -0.437332183    
  0.149939999     -0.453363240    
  0.150150001     -0.469544500    
  0.150360003     -0.485864967    
  0.150570005     -0.502313673    
  0.150780007     -0.518879771    
  0.150989994     -0.535552323    
  0.151199996     -0.552320600    
  0.151409999     -0.569173932    
  0.151620001     -0.586101711    
  0.151830003     -0.603093684    
  0.152040005     -0.620139599    
  0.152250007     -0.637229443    
  0.152459994     -0.654353440    
  0.152669996     -0.671502113    
  0.152879998     -0.688666165    
  0.153090000     -0.705836535    
  0.153300002     -0.723004460    
  0.153510004     -0.740161598    
  0.153720006     -0.757299602    
  0.153929994     -0.774410725    
  0.154139996     -0.791487396    
  0.154349998     -0.808522344    
  0.154560000     -0.825508714    
  0.154770002     -0.842439890    
  0.154980004     -0.859309494    
  0.155190006     -0.876111686    
  0.155399993     -0.892840803    
  0.155609995     -0.909491539    
  0.155819997     -0.926058769    
  0.156029999     -0.942537904    
  0.156240001     -0.958924532    
  0.156450003     -0.975214541    
  0.156660005     -0.991404057    
  0.156869993      -1.00748956    
  0.157079995      -1.02346766    
  0.157289997      -1.03933537    
  0.157499999      -1.05509019    
  0.157710001      -1.07072926    
  0.157920003      -1.08625031    
  0.158130005      -1.10165143    
  0.158340007      -1.11693048    
  0.158549994      -1.13208592    
  0.158759996      -1.14711618    
  0.158969998      -1.16201997    
  0.159180000      -1.17679620    
  0.159390002      -1.19144368    
  0.159600005      -1.20596159    
  0.159810007      -1.22034907    
  0.160019994      -1.23460579    
  0.160229996      -1.24873102    
  0.160439998      -1.26272452    
  0.160650000      -1.27658570    
  0.160860002      -1.29031456    
  0.161070004      -1.30391085    
  0.161280006      -1.31737459    
  0.161489993      -1.33070576    
  0.161699995      -1.34390438    
  0.161909997      -1.35697079    
  0.162120000      -1.36990499    
  0.162330002      -1.38270760    
  0.162540004      -1.39537859    
  0.162750006      -1.40791845    
  0.162959993      -1.42032790    
  0.163169995      -1.43260717    
  0.163379997      -1.44475710    
  0.163589999      -1.45677805    
  0.163800001      -1.46867096    
  0.164010003      -1.48043656    
  0.164220005      -1.49207580    
  0.164430007      -1.50358963    
  0.164639995      -1.51497912    
  0.164849997      -1.52624559    
  0.165059999      -1.53739011    
  0.165270001      -1.54841411    
  0.165480003      -1.55931902    
  0.165690005      -1.57010663    
  0.165900007      -1.58077860    
  0.166109994      -1.59133697    
  0.166319996      -1.60178375    
  0.166529998      -1.61212122    
  0.166740000      -1.62235165    
  0.166950002      -1.63247788    
  0.167160004      -1.64250231    
  0.167370006      -1.65242815    
  0.167579994      -1.66225851    
  0.167789996      -1.67199671    
  0.167999998      -1.68164635    
  0.168210000      -1.69121110    
  0.168420002      -1.70069504    
  0.168630004      -1.71010244    
  0.168840006      -1.71943760    
  0.169049993      -1.72870529    
  0.169259995      -1.73791039    
  0.169469997      -1.74705791    
  0.169679999      -1.75615311    
  0.169890001      -1.76520169    
  0.170100003      -1.77420926    
  0.170310006      -1.78318167    
  0.170519993      -1.79212534    
  0.170729995      -1.80104637    
  0.170939997      -1.80995131    
  0.171149999      -1.81884670    
  0.171360001      -1.82773960    
  0.171570003      -1.83663690    
  0.171780005      -1.84554553    
  0.171990007      -1.85447264    
  0.172199994      -1.86342561    
  0.172409996      -1.87241161    
  0.172619998      -1.88143814    
  0.172830001      -1.89051247    
  0.173040003      -1.89964199    
  0.173250005      -1.90883410    
  0.173460007      -1.91809607    
  0.173669994      -1.92743480    
  0.173879996      -1.93685770    
  0.174089998      -1.94637156    
  0.174300000      -1.95598352    
  0.174510002      -1.96569979    
  0.174720004      -1.97552693    
  0.174930006      -1.98547113    
  0.175139993      -1.99553823    
  0.175349995      -2.00573373    
  0.175559998      -2.01606297    
  0.175770000      -2.02653074    
  0.175980002      -2.03714156    
  0.176190004      -2.04789948    
  0.176400006      -2.05880809    
  0.176609993      -2.06987047    
  0.176819995      -2.08108950    
  0.177029997      -2.09246755    
  0.177239999      -2.10400605    
  0.177450001      -2.11570621    
  0.177660003      -2.12756848    
  0.177870005      -2.13959265    
  0.178080007      -2.15177846    
  0.178289995      -2.16412449    
  0.178499997      -2.17662883    
  0.178709999      -2.18928885    
  0.178920001      -2.20210195    
  0.179130003      -2.21506429    
  0.179340005      -2.22817183    
  0.179550007      -2.24141908    
  0.179759994      -2.25480080    