   0.00000000       0.00000000    
   7.50000036E-05   0.00000000    
   1.50000007E-04   0.00000000    
   2.24999996E-04   0.00000000    
   3.00000014E-04   1.79295696E-25
   3.75000003E-04   1.80598621E-24
   4.49999992E-04   9.83167444E-24
   5.24999981E-04   3.85568799E-23
   6.00000028E-04   1.22211531E-22
   6.75000018E-04   3.32789644E-22
   7.50000007E-04   8.07975724E-22
   8.24999996E-04   1.79254179E-21
   8.99999985E-04   3.69713222E-21
   9.74999974E-04   7.17892282E-21
   1.04999996E-03   1.32491474E-20
   1.12499995E-03   2.34130274E-20
   1.20000006E-03   3.98483436E-20
   1.27500005E-03   6.56293499E-20
   1.35000004E-03   1.05002895E-19
   1.42500002E-03   1.63725035E-19
   1.50000001E-03   2.49465782E-19
   1.57500000E-03   3.72291660E-19
   1.64999999E-03   5.45234912E-19
   1.72499998E-03   7.84956868E-19
   1.79999997E-03   1.11251946E-18
   1.87499996E-03   1.55427320E-18
   1.94999995E-03   2.14286763E-18
   2.02500005E-03   2.91840735E-18
   2.09999993E-03   3.92974401E-18
   2.17500003E-03   5.23593499E-18
   2.24999990E-03   6.90788580E-18
   2.32500001E-03   9.03015538E-18
   2.40000011E-03   1.17029662E-17
   2.47499999E-03   1.50443904E-17
   2.55000009E-03   1.91928004E-17
   2.62499996E-03   2.43094717E-17
   2.70000007E-03   3.05815356E-17
   2.77499994E-03   3.82250683E-17
   2.85000005E-03   4.74883960E-17
   2.92499992E-03   5.86558272E-17
   3.00000003E-03   7.20515739E-17
   3.07499990E-03   8.80438140E-17
   3.15000000E-03   1.07049195E-16
   3.22500011E-03   1.29537596E-16
   3.29999998E-03   1.56037207E-16
   3.37500009E-03   1.87139727E-16
   3.44999996E-03   2.23505949E-16
   3.52500007E-03   2.65871863E-16
   3.59999994E-03   3.15054699E-16
   3.67500004E-03   3.71959219E-16
   3.74999992E-03   4.37584553E-16
   3.82500002E-03   5.13030968E-16
   3.89999989E-03   5.99507685E-16
   3.97500023E-03   6.98339701E-16
   4.05000011E-03   8.10974755E-16
   4.12499998E-03   9.38992879E-16
   4.19999985E-03   1.08411440E-15
   4.27500019E-03   1.24820692E-15
   4.35000006E-03   1.43329272E-15
   4.42499993E-03   1.64155970E-15
   4.49999981E-03   1.87536927E-15
   4.57500014E-03   2.13726445E-15
   4.65000002E-03   2.42997744E-15
   4.72499989E-03   2.75643855E-15
   4.80000023E-03   3.11978582E-15
   4.87500010E-03   3.52337436E-15
   4.94999997E-03   3.97078077E-15
   5.02499985E-03   4.46581393E-15
   5.10000018E-03   5.01252160E-15
   5.17500006E-03   5.61519782E-15
   5.24999993E-03   6.27838608E-15
   5.32499980E-03   7.00689794E-15
   5.40000014E-03   7.80580248E-15
   5.47500001E-03   8.68043345E-15
   5.54999989E-03   9.63641517E-15
   5.62500022E-03   1.06796379E-14
   5.70000010E-03   1.18162706E-14
   5.77499997E-03   1.30527760E-14
   5.84999984E-03   1.43959043E-14
   5.92500018E-03   1.58526807E-14
   6.00000005E-03   1.74304134E-14
   6.07499992E-03   1.91367054E-14
   6.14999980E-03   2.09794154E-14
   6.22500014E-03   2.29666851E-14
   6.30000001E-03   2.51069239E-14
   6.37499988E-03   2.74087834E-14
   6.45000022E-03   2.98811540E-14
   6.52500009E-03   3.25331735E-14
   6.59999996E-03   3.53742033E-14
   6.67499984E-03   3.84137844E-14
   6.75000018E-03   4.16616916E-14
   6.82500005E-03   4.51278453E-14
   6.89999992E-03   4.88222710E-14
   6.97499979E-03   5.27551330E-14
   7.05000013E-03   5.69366874E-14
   7.12500000E-03   6.13772406E-14
   7.19999988E-03   6.60871504E-14
   7.27500021E-03   7.10767437E-14
   7.35000009E-03   7.63562865E-14
   7.42499996E-03   8.19359093E-14
   7.49999983E-03   8.78256886E-14
   7.57500017E-03   9.40356056E-14
   7.65000004E-03   1.00575256E-13
   7.72499992E-03   1.07453956E-13
   7.79999979E-03   1.14680712E-13
   7.87500013E-03   1.22264164E-13
   7.95000046E-03   1.30212478E-13
   8.02499987E-03   1.38533269E-13
   8.10000021E-03   1.47233598E-13
   8.17499962E-03   1.56319754E-13
   8.24999996E-03   1.65797308E-13
   8.32500029E-03   1.75671096E-13
   8.39999970E-03   1.85944996E-13
   8.47500004E-03   1.96621921E-13
   8.55000038E-03   2.07703687E-13
   8.62499978E-03   2.19190944E-13
   8.70000012E-03   2.31083083E-13
   8.77500046E-03   2.43378072E-13
   8.84999987E-03   2.56072507E-13
   8.92500021E-03   2.69161375E-13
   8.99999961E-03   2.82638062E-13
   9.07499995E-03   2.96494139E-13
   9.15000029E-03   3.10719197E-13
   9.22499970E-03   3.25300957E-13
   9.30000003E-03   3.40225434E-13
   9.37500037E-03   3.55475821E-13
   9.44999978E-03   3.71033120E-13
   9.52500012E-03   3.86876159E-13
   9.60000046E-03   4.02981061E-13
   9.67499986E-03   4.19321451E-13
   9.75000020E-03   4.35868003E-13
   9.82499961E-03   4.52588596E-13
   9.89999995E-03   4.69447831E-13
   9.97500028E-03   4.86407681E-13
   1.00499997E-02   5.03426890E-13
   1.01250000E-02   5.20461116E-13
   1.02000004E-02   5.37462165E-13
   1.02749998E-02   5.54377941E-13
   1.03500001E-02   5.71153205E-13
   1.04250005E-02   5.87728922E-13
   1.04999999E-02   6.04042803E-13
   1.05750002E-02   6.20028280E-13
   1.06499996E-02   6.35614608E-13
   1.07249999E-02   6.50727356E-13
   1.08000003E-02   6.65287270E-13
   1.08749997E-02   6.79212112E-13
   1.09500000E-02   6.92414930E-13
   1.10250004E-02   7.04804542E-13
   1.10999998E-02   7.16285700E-13
   1.11750001E-02   7.26758660E-13
   1.12500004E-02   7.36119553E-13
   1.13249999E-02   7.44259960E-13
   1.14000002E-02   7.51067502E-13
   1.14749996E-02   7.56425467E-13
   1.15499999E-02   7.60213290E-13
   1.16250003E-02   7.62305583E-13
   1.16999997E-02   7.62572947E-13
   1.17750000E-02   7.60882893E-13
   1.18500004E-02   7.57098757E-13
   1.19249998E-02   7.51079646E-13
   1.20000001E-02   7.42680765E-13
   1.20750004E-02   7.31754880E-13
   1.21499998E-02   7.18150149E-13
   1.22250002E-02   7.01712505E-13
   1.22999996E-02   6.82285120E-13
   1.23749999E-02   6.59707748E-13
   1.24500003E-02   6.33818410E-13
   1.25249997E-02   6.04452144E-13
   1.26000000E-02   5.71442036E-13
   1.26750004E-02   5.34621392E-13
   1.27499998E-02   4.93820534E-13
   1.28250001E-02   4.48867723E-13
   1.29000004E-02   3.99592631E-13
   1.29749998E-02   3.45824850E-13
   1.30500002E-02   2.87393454E-13
   1.31249996E-02   2.24126503E-13
   1.31999999E-02   1.55855025E-13
   1.32750003E-02   8.24141374E-14
   1.33499997E-02   3.63851303E-15
   1.34250000E-02  -8.06358967E-14
   1.35000004E-02  -1.70568027E-13
   1.35749998E-02  -2.66313122E-13
   1.36500001E-02  -3.68021667E-13
   1.37250004E-02  -4.75840613E-13
   1.37999998E-02  -5.89911041E-13
   1.38750002E-02  -7.10364818E-13
   1.39499996E-02  -8.37331452E-13
   1.40249999E-02  -9.70931235E-13
   1.41000003E-02  -1.11127318E-12
   1.41749997E-02  -1.25845959E-12
   1.42500000E-02  -1.41258576E-12
   1.43250003E-02  -1.57373127E-12
   1.43999998E-02  -1.74196345E-12
   1.44750001E-02  -1.91734150E-12
   1.45500004E-02  -2.09991052E-12
   1.46249998E-02  -2.28970272E-12
   1.47000002E-02  -2.48673304E-12
   1.47749996E-02  -2.69100150E-12
   1.48499999E-02  -2.90249378E-12
   1.49250003E-02  -3.12117433E-12
   1.49999997E-02  -3.34699109E-12
   1.50750000E-02  -3.57987511E-12
   1.51500003E-02  -3.81973576E-12
   1.52249997E-02  -4.06646244E-12
   1.53000001E-02  -4.31992593E-12
   1.53750004E-02  -4.57997312E-12
   1.54499998E-02  -4.84642318E-12
   1.55250002E-02  -5.11907530E-12
   1.55999996E-02  -5.39770399E-12
   1.56750008E-02  -5.68205595E-12
   1.57500003E-02  -5.97185365E-12
   1.58249997E-02  -6.26679351E-12
   1.59000009E-02  -6.56654245E-12
   1.59750003E-02  -6.87073618E-12
   1.60499997E-02  -7.17898701E-12
   1.61249992E-02  -7.49087684E-12
   1.62000004E-02  -7.80595553E-12
   1.62749998E-02  -8.12374213E-12
   1.63499992E-02  -8.44372228E-12
   1.64250005E-02  -8.76535129E-12
   1.64999999E-02  -9.08805583E-12
   1.65749993E-02  -9.41122701E-12
   1.66500006E-02  -9.73422037E-12
   1.67250000E-02  -1.00563603E-11
   1.67999994E-02  -1.03769389E-11
   1.68750007E-02  -1.06952181E-11
   1.69500001E-02  -1.10104235E-11
   1.70249995E-02  -1.13217474E-11
   1.71000008E-02  -1.16283528E-11
   1.71750002E-02  -1.19293637E-11
   1.72499996E-02  -1.22238695E-11
   1.73250008E-02  -1.25109359E-11
   1.74000002E-02  -1.27895897E-11
   1.74749997E-02  -1.30588283E-11
   1.75500009E-02  -1.33176213E-11
   1.76250003E-02  -1.35649027E-11
   1.76999997E-02  -1.37995787E-11
   1.77749991E-02  -1.40205321E-11
   1.78500004E-02  -1.42266155E-11
   1.79249998E-02  -1.44166528E-11
   1.79999992E-02  -1.45894442E-11
   1.80750005E-02  -1.47437670E-11
   1.81499999E-02  -1.48783780E-11
   1.82249993E-02  -1.49920146E-11
   1.83000006E-02  -1.50833929E-11
   1.83750000E-02  -1.51512067E-11
   1.84499994E-02  -1.51941463E-11
   1.85250007E-02  -1.52108777E-11
   1.86000001E-02  -1.52000617E-11
   1.86749995E-02  -1.51603504E-11
   1.87500007E-02  -1.50903907E-11
   1.88250002E-02  -1.49888192E-11
   1.88999996E-02  -1.48542758E-11
   1.89750008E-02  -1.46854039E-11
   1.90500002E-02  -1.44808540E-11
   1.91249996E-02  -1.42392764E-11
   1.92000009E-02  -1.39593337E-11
   1.92750003E-02  -1.36397092E-11
   1.93499997E-02  -1.32790940E-11
   1.94249991E-02  -1.28762044E-11
   1.95000004E-02  -1.24297812E-11
   1.95749998E-02  -1.19385916E-11
   1.96499992E-02  -1.14014327E-11
   1.97250005E-02  -1.08171389E-11
   1.97999999E-02  -1.01845815E-11
   1.98749993E-02  -9.50267642E-12
   1.99500006E-02  -8.77038719E-12
   2.00250000E-02  -7.98672673E-12
   2.00999994E-02  -7.15076739E-12
   2.01750007E-02  -6.26163704E-12
   2.02500001E-02  -5.31852904E-12
   2.03249995E-02  -4.32070612E-12
   2.04000007E-02  -3.26749999E-12
   2.04750001E-02  -2.15832582E-12
   2.05499995E-02  -9.92675451E-13
   2.06250008E-02   2.29874279E-13
   2.07000002E-02   1.50964657E-12
   2.07749996E-02   2.84687313E-12
   2.08500009E-02   4.24169293E-12
   2.09250003E-02   5.69413527E-12
   2.09999997E-02   7.20412098E-12
   2.10749991E-02   8.77145578E-12
   2.11500004E-02   1.03958274E-11
   2.12249998E-02   1.20768100E-11
   2.12999992E-02   1.38138442E-11
   2.13750005E-02   1.56062420E-11
   2.14499999E-02   1.74531847E-11
   2.15249993E-02   1.93537096E-11
   2.16000006E-02   2.13067099E-11
   2.16750000E-02   2.33109435E-11
   2.17499994E-02   2.53650070E-11
   2.18250006E-02   2.74673513E-11
   2.19000001E-02   2.96162712E-11
   2.19749995E-02   3.18098881E-11
   2.20500007E-02   3.40461895E-11
   2.21250001E-02   3.63229863E-11
   2.21999995E-02   3.86379054E-11
   2.22750008E-02   4.09884245E-11
   2.23500002E-02   4.33718478E-11
   2.24249996E-02   4.57852888E-11
   2.25000009E-02   4.82256943E-11
   2.25750003E-02   5.06898551E-11
   2.26499997E-02   5.31743746E-11
   2.27249991E-02   5.56756759E-11
   2.28000004E-02   5.81900014E-11
   2.28749998E-02   6.07134204E-11
   2.29499992E-02   6.32418076E-11
   2.30250005E-02   6.57708887E-11
   2.30999999E-02   6.82961951E-11
   2.31749993E-02   7.08131054E-11
   2.32500006E-02   7.33168387E-11
   2.33250000E-02   7.58024130E-11
   2.33999994E-02   7.82647003E-11
   2.34750006E-02   8.06983994E-11
   2.35500000E-02   8.30980215E-11
   2.36249994E-02   8.54579879E-11
   2.37000007E-02   8.77725254E-11
   2.37750001E-02   9.00357150E-11
   2.38499995E-02   9.22415339E-11
   2.39250008E-02   9.43838063E-11
   2.40000002E-02   9.64561694E-11
   2.40749996E-02   9.84522325E-11
   2.41500009E-02   1.00365466E-10
   2.42250003E-02   1.02189229E-10
   2.42999997E-02   1.03916799E-10
   2.43749991E-02   1.05541326E-10
   2.44500004E-02   1.07055899E-10
   2.45249998E-02   1.08453573E-10
   2.45999992E-02   1.09727304E-10
   2.46750005E-02   1.10870008E-10
   2.47499999E-02   1.11874593E-10
   2.48249993E-02   1.12733919E-10
   2.49000005E-02   1.13440833E-10
   2.49749999E-02   1.13988222E-10
   2.50499994E-02   1.14368973E-10
   2.51250006E-02   1.14575946E-10
   2.52000000E-02   1.14602078E-10
   2.52749994E-02   1.14440367E-10
   2.53500007E-02   1.14083916E-10
   2.54250001E-02   1.13525911E-10
   2.54999995E-02   1.12759628E-10
   2.55750008E-02   1.11778461E-10
   2.56500002E-02   1.10575944E-10
   2.57249996E-02   1.09145755E-10
   2.58000009E-02   1.07481767E-10
   2.58750003E-02   1.05578019E-10
   2.59499997E-02   1.03428793E-10
   2.60249991E-02   1.01028540E-10
   2.61000004E-02   9.83719772E-11
   2.61749998E-02   9.54541168E-11
   2.62499992E-02   9.22702609E-11
   2.63250005E-02   8.88160032E-11
   2.63999999E-02   8.50871734E-11
   2.64749993E-02   8.10800108E-11
   2.65500005E-02   7.67911429E-11
   2.66249999E-02   7.22175375E-11
   2.66999993E-02   6.73565440E-11
   2.67750006E-02   6.22059834E-11
   2.68500000E-02   5.67640587E-11
   2.69249994E-02   5.10294168E-11
   2.70000007E-02   4.50012180E-11
   2.70750001E-02   3.86791259E-11
   2.71499995E-02   3.20633242E-11
   2.72250008E-02   2.51544636E-11
   2.73000002E-02   1.79537635E-11
   2.73749996E-02   1.04630306E-11
   2.74500009E-02   2.68459430E-12
   2.75250003E-02  -5.37854657E-12
   2.75999997E-02  -1.37227642E-11
   2.76749991E-02  -2.23439114E-11
   2.77500004E-02  -3.12371205E-11
   2.78249998E-02  -4.03968560E-11
   2.78999992E-02  -4.98169839E-11
   2.79750004E-02  -5.94905514E-11
   2.80499998E-02  -6.94099916E-11
   2.81249993E-02  -7.95670890E-11
   2.82000005E-02  -8.99528230E-11
   2.82749999E-02  -1.00557396E-10
   2.83499993E-02  -1.11370357E-10
   2.84250006E-02  -1.22380592E-10
   2.85000000E-02  -1.33576109E-10
   2.85749994E-02  -1.44944126E-10
   2.86500007E-02  -1.56471183E-10
   2.87250001E-02  -1.68143055E-10
   2.87999995E-02  -1.79944698E-10
   2.88750008E-02  -1.91860389E-10
   2.89500002E-02  -2.03873599E-10
   2.90249996E-02  -2.15966994E-10
   2.91000009E-02  -2.28122535E-10
   2.91750003E-02  -2.40321346E-10
   2.92499997E-02  -2.52543902E-10
   2.93249991E-02  -2.64769928E-10
   2.94000003E-02  -2.76978329E-10
   2.94749998E-02  -2.89147345E-10
   2.95499992E-02  -3.01254549E-10
   2.96250004E-02  -3.13276766E-10
   2.96999998E-02  -3.25190153E-10
   2.97749992E-02  -3.36970174E-10
   2.98500005E-02  -3.48591767E-10
   2.99249999E-02  -3.60029118E-10
   2.99999993E-02  -3.71255887E-10
   3.00750006E-02  -3.82245180E-10
   3.01500000E-02  -3.92969518E-10
   3.02249994E-02  -4.03400896E-10
   3.03000007E-02  -4.13510948E-10
   3.03750001E-02  -4.23270696E-10
   3.04499995E-02  -4.32650804E-10
   3.05250008E-02  -4.41621545E-10
   3.06000002E-02  -4.50152832E-10
   3.06749996E-02  -4.58214300E-10
   3.07500008E-02  -4.65775307E-10
   3.08250003E-02  -4.72804962E-10
   3.08999997E-02  -4.79272289E-10
   3.09749991E-02  -4.85146034E-10
   3.10500003E-02  -4.90395002E-10
   3.11249997E-02  -4.94987884E-10
   3.11999992E-02  -4.98893316E-10
   3.12750004E-02  -5.02080211E-10
   3.13500017E-02  -5.04517372E-10
   3.14249992E-02  -5.06173992E-10
   3.15000005E-02  -5.07019260E-10
   3.15750018E-02  -5.07022924E-10
   3.16499993E-02  -5.06154951E-10
   3.17250006E-02  -5.04385755E-10
   3.18000019E-02  -5.01686137E-10
   3.18749994E-02  -4.98027619E-10
   3.19500007E-02  -4.93382113E-10
   3.20249982E-02  -4.87722418E-10
   3.20999995E-02  -4.81022056E-10
   3.21750008E-02  -4.73255268E-10
   3.22499983E-02  -4.64397187E-10
   3.23249996E-02  -4.54423860E-10
   3.24000008E-02  -4.43312498E-10
   3.24749984E-02  -4.31041314E-10
   3.25499997E-02  -4.17589685E-10
   3.26250009E-02  -4.02938266E-10
   3.26999985E-02  -3.87068988E-10
   3.27749997E-02  -3.69965170E-10
   3.28500010E-02  -3.51611518E-10
   3.29249986E-02  -3.31994349E-10
   3.29999998E-02  -3.11101617E-10
   3.30750011E-02  -2.88922858E-10
   3.31499986E-02  -2.65449385E-10
   3.32249999E-02  -2.40674231E-10
   3.33000012E-02  -2.14592441E-10
   3.33749987E-02  -1.87200991E-10
   3.34500000E-02  -1.58498784E-10
   3.35250013E-02  -1.28486860E-10
   3.35999988E-02  -9.71683914E-11
   3.36750001E-02  -6.45486997E-11
   3.37500013E-02  -3.06355531E-11
   3.38249989E-02   4.56102083E-12
   3.39000002E-02   4.10287394E-11
   3.39750014E-02   7.87527127E-11
   3.40499990E-02   1.17715518E-10
   3.41250002E-02   1.57897334E-10
   3.42000015E-02   1.99275638E-10
   3.42749991E-02   2.41825282E-10
   3.43500003E-02   2.85518470E-10
   3.44250016E-02   3.30324601E-10
   3.44999991E-02   3.76210230E-10
   3.45750004E-02   4.23139218E-10
   3.46500017E-02   4.71072514E-10
   3.47249992E-02   5.19968180E-10
   3.48000005E-02   5.69781444E-10
   3.48750018E-02   6.20464680E-10
   3.49499993E-02   6.71967149E-10
   3.50250006E-02   7.24235061E-10
   3.51000018E-02   7.77212072E-10
   3.51749994E-02   8.30838787E-10
   3.52500007E-02   8.85052642E-10
   3.53249982E-02   9.39788247E-10
   3.53999995E-02   9.94977101E-10
   3.54750007E-02   1.05054798E-09
   3.55499983E-02   1.10642639E-09
   3.56249996E-02   1.16253529E-09
   3.57000008E-02   1.21879473E-09
   3.57749984E-02   1.27512167E-09
   3.58499996E-02   1.33143085E-09
   3.59250009E-02   1.38763390E-09
   3.59999985E-02   1.44363954E-09
   3.60749997E-02   1.49935420E-09
   3.61500010E-02   1.55468127E-09
   3.62249985E-02   1.60952229E-09
   3.62999998E-02   1.66377623E-09
   3.63750011E-02   1.71733927E-09
   3.64499986E-02   1.77010573E-09
   3.65249999E-02   1.82196735E-09
   3.66000012E-02   1.87281413E-09
   3.66749987E-02   1.92253391E-09
   3.67500000E-02   1.97101246E-09
   3.68250012E-02   2.01813455E-09
   3.68999988E-02   2.06378270E-09
   3.69750001E-02   2.10783790E-09
   3.70500013E-02   2.15017959E-09
   3.71249989E-02   2.19068630E-09
   3.72000001E-02   2.22923546E-09
   3.72750014E-02   2.26570318E-09
   3.73499990E-02   2.29996489E-09
   3.74250002E-02   2.33189579E-09
   3.75000015E-02   2.36137043E-09
   3.75749990E-02   2.38826270E-09
   3.76500003E-02   2.41244713E-09
   3.77250016E-02   2.43379739E-09
   3.77999991E-02   2.45218734E-09
   3.78750004E-02   2.46749221E-09
   3.79500017E-02   2.47958720E-09
   3.80249992E-02   2.48834797E-09
   3.81000005E-02   2.49365195E-09
   3.81750017E-02   2.49537768E-09
   3.82499993E-02   2.49340504E-09
   3.83250006E-02   2.48761522E-09
   3.84000018E-02   2.47789167E-09
   3.84749994E-02   2.46412002E-09
   3.85500006E-02   2.44618814E-09
   3.86249982E-02   2.42398612E-09
   3.86999995E-02   2.39740738E-09
   3.87750007E-02   2.36634801E-09
   3.88499983E-02   2.33070740E-09
   3.89249995E-02   2.29038899E-09
   3.90000008E-02   2.24529884E-09
   3.90749983E-02   2.19534835E-09
   3.91499996E-02   2.14045182E-09
   3.92250009E-02   2.08052864E-09
   3.92999984E-02   2.01550265E-09
   3.93749997E-02   1.94530347E-09
   3.94500010E-02   1.86986471E-09
   3.95249985E-02   1.78912618E-09
   3.95999998E-02   1.70303294E-09
   3.96750011E-02   1.61153690E-09
   3.97499986E-02   1.51459578E-09
   3.98249999E-02   1.41217316E-09
   3.99000011E-02   1.30423883E-09
   3.99749987E-02   1.19077015E-09
   4.00500000E-02   1.07175158E-09
   4.01250012E-02   9.47174339E-10
   4.01999988E-02   8.17038270E-10
   4.02750000E-02   6.81350143E-10
   4.03500013E-02   5.40124778E-10
   4.04249988E-02   3.93385324E-10
   4.05000001E-02   2.41162812E-10
   4.05750014E-02   8.34970496E-11
   4.06499989E-02  -7.95637375E-11
   4.07250002E-02  -2.47961651E-10
   4.08000015E-02  -4.21630286E-10
   4.08749990E-02  -6.00494154E-10
   4.09500003E-02  -7.84468601E-10
   4.10250016E-02  -9.73458980E-10
   4.10999991E-02  -1.16736054E-09
   4.11750004E-02  -1.36605949E-09
   4.12500016E-02  -1.56943203E-09
   4.13249992E-02  -1.77734449E-09
   4.14000005E-02  -1.98965311E-09
   4.14750017E-02  -2.20620322E-09
   4.15499993E-02  -2.42682985E-09
   4.16250005E-02  -2.65135891E-09
   4.17000018E-02  -2.87960611E-09
   4.17749994E-02  -3.11137582E-09
   4.18500006E-02  -3.34646222E-09
   4.19249982E-02  -3.58464969E-09
   4.19999994E-02  -3.82571130E-09
   4.20750007E-02  -4.06940970E-09
   4.21499982E-02  -4.31549818E-09
   4.22249995E-02  -4.56371829E-09
   4.23000008E-02  -4.81380225E-09
   4.23749983E-02  -5.06547249E-09
   4.24499996E-02  -5.31844124E-09
   4.25250009E-02  -5.57241009E-09
   4.25999984E-02  -5.82707171E-09
   4.26749997E-02  -6.08210859E-09
   4.27500010E-02  -6.33719344E-09
   4.28249985E-02  -6.59199095E-09
   4.28999998E-02  -6.84615520E-09
   4.29750010E-02  -7.09933179E-09
   4.30499986E-02  -7.35115657E-09
   4.31249999E-02  -7.60125918E-09
   4.32000011E-02  -7.84925991E-09
   4.32749987E-02  -8.09477019E-09
   4.33499999E-02  -8.33739566E-09
   4.34250012E-02  -8.57673221E-09
   4.34999987E-02  -8.81237217E-09
   4.35750000E-02  -9.04389807E-09
   4.36500013E-02  -9.27088717E-09
   4.37249988E-02  -9.49291223E-09
   4.38000001E-02  -9.70953895E-09
   4.38750014E-02  -9.92032678E-09
   4.39499989E-02  -1.01248334E-08
   4.40250002E-02  -1.03226112E-08
   4.41000015E-02  -1.05132072E-08
   4.41749990E-02  -1.06961666E-08
   4.42500003E-02  -1.08710321E-08
   4.43250015E-02  -1.10373435E-08
   4.43999991E-02  -1.11946399E-08
   4.44750004E-02  -1.13424576E-08
   4.45500016E-02  -1.14803340E-08
   4.46249992E-02  -1.16078045E-08
   4.47000004E-02  -1.17244072E-08
   4.47750017E-02  -1.18296795E-08
   4.48499992E-02  -1.19231620E-08
   4.49250005E-02  -1.20043975E-08
   4.50000018E-02  -1.20729320E-08
   4.50749993E-02  -1.21283126E-08
   4.51500006E-02  -1.21700934E-08
   4.52249981E-02  -1.21978330E-08
   4.52999994E-02  -1.22110944E-08
   4.53750007E-02  -1.22094495E-08
   4.54499982E-02  -1.21924764E-08
   4.55249995E-02  -1.21597594E-08
   4.56000008E-02  -1.21108910E-08
   4.56749983E-02  -1.20454757E-08
   4.57499996E-02  -1.19631256E-08
   4.58250009E-02  -1.18634658E-08
   4.58999984E-02  -1.17461312E-08
   4.59749997E-02  -1.16107683E-08
   4.60500009E-02  -1.14570389E-08
   4.61249985E-02  -1.12846141E-08
   4.61999997E-02  -1.10931833E-08
   4.62750010E-02  -1.08824505E-08
   4.63499986E-02  -1.06521343E-08
   4.64249998E-02  -1.04019700E-08
   4.65000011E-02  -1.01317106E-08
   4.65749986E-02  -9.84112791E-09
   4.66499999E-02  -9.53001233E-09
   4.67250012E-02  -9.19817289E-09
   4.67999987E-02  -8.84543816E-09
   4.68750000E-02  -8.47166159E-09
   4.69500013E-02  -8.07671530E-09
   4.70249988E-02  -7.66049268E-09
   4.71000001E-02  -7.22291249E-09
   4.71750014E-02  -6.76391609E-09
   4.72499989E-02  -6.28346886E-09
   4.73250002E-02  -5.78156278E-09
   4.74000014E-02  -5.25821431E-09
   4.74749990E-02  -4.71346562E-09
   4.75500003E-02  -4.14738732E-09
   4.76250015E-02  -3.56007601E-09
   4.76999991E-02  -2.95165647E-09
   4.77750003E-02  -2.32228170E-09
   4.78500016E-02  -1.67213499E-09
   4.79249991E-02  -1.00142872E-09
   4.80000004E-02  -3.10404591E-10
   4.80750017E-02   4.00665445E-10
   4.81499992E-02   1.13147824E-09
   4.82250005E-02   1.88169880E-09
   4.83000018E-02   2.65095945E-09
   4.83749993E-02   3.43886475E-09
   4.84500006E-02   4.24498481E-09
   4.85250019E-02   5.06885511E-09
   4.85999994E-02   5.90998228E-09
   4.86750007E-02   6.76783740E-09
   4.87499982E-02   7.64185959E-09
   4.88249995E-02   8.53145465E-09
   4.89000008E-02   9.43599687E-09
   4.89749983E-02   1.03548228E-08
   4.90499996E-02   1.12872387E-08
   4.91250008E-02   1.22325172E-08
   4.91999984E-02   1.31898981E-08
   4.92749996E-02   1.41585863E-08
   4.93500009E-02   1.51377542E-08
   4.94249985E-02   1.61265419E-08
   4.94999997E-02   1.71240586E-08
   4.95750010E-02   1.81293771E-08
   4.96499985E-02   1.91415399E-08
   4.97249998E-02   2.01595576E-08
   4.98000011E-02   2.11824123E-08
   4.98749986E-02   2.22090506E-08
   4.99499999E-02   2.32383908E-08
   5.00250012E-02   2.42693226E-08
   5.00999987E-02   2.53007020E-08
   5.01750000E-02   2.63313602E-08
   5.02500013E-02   2.73600982E-08
   5.03249988E-02   2.83856956E-08
   5.04000001E-02   2.94068947E-08
   5.04750013E-02   3.04224272E-08
   5.05499989E-02   3.14309823E-08
   5.06250001E-02   3.24312381E-08
   5.07000014E-02   3.34218448E-08
   5.07749990E-02   3.44014275E-08
   5.08500002E-02   3.53686005E-08
   5.09250015E-02   3.63219463E-08
   5.09999990E-02   3.72600333E-08
   5.10750003E-02   3.81814154E-08
   5.11500016E-02   3.90846218E-08
   5.12249991E-02   3.99681817E-08
   5.13000004E-02   4.08305922E-08
   5.13750017E-02   4.16703578E-08
   5.14499992E-02   4.24859579E-08
   5.15250005E-02   4.32758611E-08
   5.16000018E-02   4.40385364E-08
   5.16749993E-02   4.47724489E-08
   5.17500006E-02   4.54760460E-08
   5.18250018E-02   4.61477789E-08
   5.18999994E-02   4.67860986E-08
   5.19750006E-02   4.73894559E-08
   5.20499982E-02   4.79563020E-08
   5.21249995E-02   4.84850915E-08
   5.22000007E-02   4.89742931E-08
   5.22749983E-02   4.94223613E-08
   5.23499995E-02   4.98277828E-08
   5.24250008E-02   5.01890440E-08
   5.24999984E-02   5.05046387E-08
   5.25749996E-02   5.07730888E-08
   5.26500009E-02   5.09929308E-08
   5.27249984E-02   5.11627150E-08
   5.27999997E-02   5.12810203E-08
   5.28750010E-02   5.13464329E-08
   5.29499985E-02   5.13575742E-08
   5.30249998E-02   5.13131049E-08
   5.31000011E-02   5.12116891E-08
   5.31749986E-02   5.10520408E-08
   5.32499999E-02   5.08329023E-08
   5.33250012E-02   5.05530551E-08
   5.33999987E-02   5.02113124E-08
   5.34750000E-02   4.98065269E-08
   5.35500012E-02   4.93376007E-08
   5.36249988E-02   4.88034750E-08
   5.37000000E-02   4.82031446E-08
   5.37750013E-02   4.75356394E-08
   5.38499989E-02   4.68000536E-08
   5.39250001E-02   4.59955274E-08
   5.40000014E-02   4.51212543E-08
   5.40749989E-02   4.41764882E-08
   5.41500002E-02   4.31605400E-08
   5.42250015E-02   4.20727808E-08
   5.42999990E-02   4.09126493E-08
   5.43750003E-02   3.96796480E-08
   5.44500016E-02   3.83733436E-08
   5.45249991E-02   3.69933737E-08
   5.46000004E-02   3.55394469E-08
   5.46750017E-02   3.40113502E-08
   5.47499992E-02   3.24089378E-08
   5.48250005E-02   3.07321422E-08
   5.49000017E-02   2.89809776E-08
   5.49749993E-02   2.71555347E-08
   5.50500005E-02   2.52559875E-08
   5.51250018E-02   2.32825954E-08
   5.51999994E-02   2.12356905E-08
   5.52750006E-02   1.91157081E-08
   5.53499982E-02   1.69231669E-08
   5.54249994E-02   1.46586689E-08
   5.55000007E-02   1.23229089E-08
   5.55749983E-02   9.91667726E-09
   5.56499995E-02   7.44085593E-09
   5.57250008E-02   4.89641927E-09
   5.57999983E-02   2.28443486E-09
   5.58749996E-02  -3.93932470E-10
   5.59500009E-02  -3.13742010E-09
   5.60249984E-02  -5.94466654E-09
   5.60999997E-02  -8.81421514E-09
   5.61750010E-02  -1.17445085E-08
   5.62499985E-02  -1.47338879E-08
   5.63249998E-02  -1.77805983E-08
   5.64000010E-02  -2.08827782E-08
   5.64749986E-02  -2.40384725E-08
   5.65499999E-02  -2.72456298E-08
   5.66250011E-02  -3.05020933E-08
   5.66999987E-02  -3.38056019E-08
   5.67749999E-02  -3.71538000E-08
   5.68500012E-02  -4.05442258E-08
   5.69249988E-02  -4.39743246E-08
   5.70000000E-02  -4.74414428E-08
   5.70750013E-02  -5.09428268E-08
   5.71499988E-02  -5.44756240E-08
   5.72250001E-02  -5.80368820E-08
   5.73000014E-02  -6.16235667E-08
   5.73749989E-02  -6.52325483E-08
   5.74500002E-02  -6.88605937E-08
   5.75250015E-02  -7.25043776E-08
   5.75999990E-02  -7.61604895E-08
   5.76750003E-02  -7.98254334E-08
   5.77500015E-02  -8.34956282E-08
   5.78249991E-02  -8.71673933E-08
   5.79000004E-02  -9.08369913E-08
   5.79750016E-02  -9.45005709E-08
   5.80499992E-02  -9.81542385E-08
   5.81250004E-02  -1.01794001E-07
   5.82000017E-02  -1.05415808E-07
   5.82749993E-02  -1.09015517E-07
   5.83500005E-02  -1.12588950E-07
   5.84250018E-02  -1.16131829E-07
   5.84999993E-02  -1.19639836E-07
   5.85750006E-02  -1.23108578E-07
   5.86499982E-02  -1.26533635E-07
   5.87249994E-02  -1.29910504E-07
   5.88000007E-02  -1.33234664E-07
   5.88749982E-02  -1.36501498E-07
   5.89499995E-02  -1.39706430E-07
   5.90250008E-02  -1.42844783E-07
   5.90999983E-02  -1.45911855E-07
   5.91749996E-02  -1.48902942E-07
   5.92500009E-02  -1.51813282E-07
   5.93249984E-02  -1.54638130E-07
   5.93999997E-02  -1.57372710E-07
   5.94750009E-02  -1.60012220E-07
   5.95499985E-02  -1.62551885E-07
   5.96249998E-02  -1.64986872E-07
   5.97000010E-02  -1.67312407E-07
   5.97749986E-02  -1.69523702E-07
   5.98499998E-02  -1.71615994E-07
   5.99250011E-02  -1.73584525E-07
   5.99999987E-02  -1.75424603E-07
   6.00749999E-02  -1.77131483E-07
   6.01500012E-02  -1.78700532E-07
   6.02249987E-02  -1.80127117E-07
   6.03000000E-02  -1.81406662E-07
   6.03750013E-02  -1.82534663E-07
   6.04499988E-02  -1.83506614E-07
   6.05250001E-02  -1.84318154E-07
   6.06000014E-02  -1.84964946E-07
   6.06749989E-02  -1.85442730E-07
   6.07500002E-02  -1.85747325E-07
   6.08250014E-02  -1.85874640E-07
   6.08999990E-02  -1.85820682E-07
   6.09750003E-02  -1.85581570E-07
   6.10500015E-02  -1.85153496E-07
   6.11249991E-02  -1.84532794E-07
   6.12000003E-02  -1.83715883E-07
   6.12750016E-02  -1.82699338E-07
   6.13499992E-02  -1.81479834E-07
   6.14250004E-02  -1.80054201E-07
   6.15000017E-02  -1.78419413E-07
   6.15749992E-02  -1.76572570E-07
   6.16500005E-02  -1.74510944E-07
   6.17250018E-02  -1.72231964E-07
   6.17999993E-02  -1.69733198E-07
   6.18750006E-02  -1.67012416E-07
   6.19499981E-02  -1.64067572E-07
   6.20249994E-02  -1.60896761E-07
   6.21000007E-02  -1.57498306E-07
   6.21749982E-02  -1.53870687E-07
   6.22499995E-02  -1.50012610E-07
   6.23250008E-02  -1.45922982E-07
   6.23999983E-02  -1.41600921E-07
   6.24749996E-02  -1.37045717E-07
   6.25500008E-02  -1.32256957E-07
   6.26249984E-02  -1.27234401E-07
   6.27000034E-02  -1.21978019E-07
   6.27750009E-02  -1.16488067E-07
   6.28499985E-02  -1.10765008E-07
   6.29250035E-02  -1.04809544E-07
   6.30000010E-02  -9.86226496E-08
   6.30749986E-02  -9.22055250E-08
   6.31500036E-02  -8.55596411E-08
   6.32250011E-02  -7.86866963E-08
   6.32999986E-02  -7.15886799E-08
   6.33750036E-02  -6.42678444E-08
   6.34500012E-02  -5.67267087E-08
   6.35249987E-02  -4.89680509E-08
   6.36000037E-02  -4.09949124E-08
   6.36750013E-02  -3.28106395E-08
   6.37499988E-02  -2.44188474E-08
   6.38249964E-02  -1.58234279E-08
   6.39000013E-02  -7.02855019E-09
   6.39749989E-02   1.96134264E-09
   6.40499964E-02   1.11415188E-08
   6.41250014E-02   2.05069544E-08
   6.41999990E-02   3.00523446E-08