   0.00000000       0.00000000    
   7.50000036E-05   0.00000000    
   1.50000007E-04   0.00000000    
   2.24999996E-04   0.00000000    
   3.00000014E-04   5.04935814E-25
   3.75000003E-04   5.09865770E-24
   4.49999992E-04   2.78041662E-23
   5.24999981E-04   1.09191766E-22
   6.00000028E-04   3.46516202E-22
   6.75000018E-04   9.44553927E-22
   7.50000007E-04   2.29525697E-21
   8.24999996E-04   5.09581183E-21
   8.99999985E-04   1.05161660E-20
   9.74999974E-04   2.04286502E-20
   1.04999996E-03   3.77138008E-20
   1.12499995E-03   6.66578650E-20
   1.20000006E-03   1.13458885E-19
   1.27500005E-03   1.86859829E-19
   1.35000004E-03   2.98928391E-19
   1.42500002E-03   4.66004192E-19
   1.50000001E-03   7.09835220E-19
   1.57500000E-03   1.05892653E-18
   1.64999999E-03   1.55012530E-18
   1.72499998E-03   2.23046378E-18
   1.79999997E-03   3.15929165E-18
   1.87499996E-03   4.41071356E-18
   1.94999995E-03   6.07636580E-18
   2.02500005E-03   8.26855034E-18
   2.09999993E-03   1.11237553E-17
   2.17500003E-03   1.48065809E-17
   2.24999990E-03   1.95141022E-17
   2.32500001E-03   2.54806867E-17
   2.40000011E-03   3.29832777E-17
   2.47499999E-03   4.23471839E-17
   2.55000009E-03   5.39523625E-17
   2.62499996E-03   6.82402366E-17
   2.70000007E-03   8.57210776E-17
   2.77499994E-03   1.06981856E-16
   2.85000005E-03   1.32694779E-16
   2.92499992E-03   1.63626172E-16
   3.00000003E-03   2.00646144E-16
   3.07499990E-03   2.44738709E-16
   3.15000000E-03   2.97012368E-16
   3.22500011E-03   3.58711359E-16
   3.29999998E-03   4.31227385E-16
   3.37500009E-03   5.16111574E-16
   3.44999996E-03   6.15087321E-16
   3.52500007E-03   7.30063203E-16
   3.59999994E-03   8.63146426E-16
   3.67500004E-03   1.01665669E-15
   3.74999992E-03   1.19314024E-15
   3.82500002E-03   1.39538376E-15
   3.89999989E-03   1.62642894E-15
   3.97500023E-03   1.88958714E-15
   4.05000011E-03   2.18845383E-15
   4.12499998E-03   2.52692247E-15
   4.19999985E-03   2.90920051E-15
   4.27500019E-03   3.33981999E-15
   4.35000006E-03   3.82365368E-15
   4.42499993E-03   4.36592799E-15
   4.49999981E-03   4.97223460E-15
   4.57500014E-03   5.64854170E-15
   4.65000002E-03   6.40120628E-15
   4.72499989E-03   7.23698343E-15
   4.80000023E-03   8.16303608E-15
   4.87500010E-03   9.18693713E-15
   4.94999997E-03   1.03166800E-14
   5.02499985E-03   1.15606826E-14
   5.10000018E-03   1.29277895E-14
   5.17500006E-03   1.44272682E-14
   5.24999993E-03   1.60688130E-14
   5.32499980E-03   1.78625476E-14
   5.40000014E-03   1.98189955E-14
   5.47500001E-03   2.19490953E-14
   5.54999989E-03   2.42641753E-14
   5.62500022E-03   2.67759329E-14
   5.70000010E-03   2.94964282E-14
   5.77499997E-03   3.24380686E-14
   5.84999984E-03   3.56135613E-14
   5.92500018E-03   3.90358996E-14
   6.00000005E-03   4.27183279E-14
   6.07499992E-03   4.66743004E-14
   6.14999980E-03   5.09174442E-14
   6.22500014E-03   5.54615049E-14
   6.30000001E-03   6.03202926E-14
   6.37499988E-03   6.55076579E-14
   6.45000022E-03   7.10374007E-14
   6.52500009E-03   7.69231887E-14
   6.59999996E-03   8.31785270E-14
   6.67499984E-03   8.98166700E-14
   6.75000018E-03   9.68505468E-14
   6.82500005E-03   1.04292626E-13
   6.89999992E-03   1.12154846E-13
   6.97499979E-03   1.20448587E-13
   7.05000013E-03   1.29184491E-13
   7.12500000E-03   1.38372346E-13
   7.19999988E-03   1.48021027E-13
   7.27500021E-03   1.58138354E-13
   7.35000009E-03   1.68730901E-13
   7.42499996E-03   1.79803980E-13
   7.49999983E-03   1.91361426E-13
   7.57500017E-03   2.03405448E-13
   7.65000004E-03   2.15936562E-13
   7.72499992E-03   2.28953331E-13
   7.79999979E-03   2.42452244E-13
   7.87500013E-03   2.56427664E-13
   7.95000046E-03   2.70871514E-13
   8.02499987E-03   2.85773141E-13
   8.10000021E-03   3.01119129E-13
   8.17499962E-03   3.16893267E-13
   8.24999996E-03   3.33076204E-13
   8.32500029E-03   3.49645361E-13
   8.39999970E-03   3.66574636E-13
   8.47500004E-03   3.83834322E-13
   8.55000038E-03   4.01390835E-13
   8.62499978E-03   4.19206580E-13
   8.70000012E-03   4.37239817E-13
   8.77500046E-03   4.55444493E-13
   8.84999987E-03   4.73769786E-13
   8.92500021E-03   4.92160132E-13
   8.99999961E-03   5.10555140E-13
   9.07499995E-03   5.28889053E-13
   9.15000029E-03   5.47091018E-13
   9.22499970E-03   5.65084709E-13
   9.30000003E-03   5.82788212E-13
   9.37500037E-03   6.00113600E-13
   9.44999978E-03   6.16966927E-13
   9.52500012E-03   6.33248282E-13
   9.60000046E-03   6.48851578E-13
   9.67499986E-03   6.63664273E-13
   9.75000020E-03   6.77567540E-13
   9.82499961E-03   6.90435881E-13
   9.89999995E-03   7.02136591E-13
   9.97500028E-03   7.12530837E-13
   1.00499997E-02   7.21472957E-13
   1.01250000E-02   7.28809970E-13
   1.02000004E-02   7.34382336E-13
   1.02749998E-02   7.38023466E-13
   1.03500001E-02   7.39559997E-13
   1.04250005E-02   7.38811518E-13
   1.04999999E-02   7.35591059E-13
   1.05750002E-02   7.29704654E-13
   1.06499996E-02   7.20951565E-13
   1.07249999E-02   7.09124979E-13
   1.08000003E-02   6.94010929E-13
   1.08749997E-02   6.75389920E-13
   1.09500000E-02   6.53036002E-13
   1.10250004E-02   6.26717482E-13
   1.10999998E-02   5.96197245E-13
   1.11750001E-02   5.61232593E-13
   1.12500004E-02   5.21575675E-13
   1.13249999E-02   4.76974851E-13
   1.14000002E-02   4.27173515E-13
   1.14749996E-02   3.71910835E-13
   1.15499999E-02   3.10922674E-13
   1.16250003E-02   2.43942480E-13
   1.16999997E-02   1.70701073E-13
   1.17750000E-02   9.09273674E-14
   1.18500004E-02   4.34932911E-15
   1.19249998E-02  -8.93067833E-14
   1.20000001E-02  -1.90314453E-13
   1.20750004E-02  -2.98946279E-13
   1.21499998E-02  -4.15473076E-13
   1.22250002E-02  -5.40163617E-13
   1.22999996E-02  -6.73284453E-13
   1.23749999E-02  -8.15098152E-13
   1.24500003E-02  -9.65862590E-13
   1.25249997E-02  -1.12583022E-12
   1.26000000E-02  -1.29524679E-12
   1.26750004E-02  -1.47434983E-12
   1.27499998E-02  -1.66336964E-12
   1.28250001E-02  -1.86252663E-12
   1.29000004E-02  -2.07202918E-12
   1.29749998E-02  -2.29207538E-12
   1.30500002E-02  -2.52285063E-12
   1.31249996E-02  -2.76452472E-12
   1.31999999E-02  -3.01725376E-12
   1.32750003E-02  -3.28117655E-12
   1.33499997E-02  -3.55641406E-12
   1.34250000E-02  -3.84306909E-12
   1.35000004E-02  -4.14122295E-12
   1.35749998E-02  -4.45093528E-12
   1.36500001E-02  -4.77224467E-12
   1.37250004E-02  -5.10516022E-12
   1.37999998E-02  -5.44966980E-12
   1.38750002E-02  -5.80573437E-12
   1.39499996E-02  -6.17328237E-12
   1.40249999E-02  -6.55221493E-12
   1.41000003E-02  -6.94239978E-12
   1.41749997E-02  -7.34367255E-12
   1.42500000E-02  -7.75583677E-12
   1.43250003E-02  -8.17865740E-12
   1.43999998E-02  -8.61186469E-12
   1.44750001E-02  -9.05514812E-12
   1.45500004E-02  -9.50815641E-12
   1.46249998E-02  -9.97050099E-12
   1.47000002E-02  -1.04417482E-11
   1.47749996E-02  -1.09214209E-11
   1.48499999E-02  -1.14089970E-11
   1.49250003E-02  -1.19039049E-11
   1.49999997E-02  -1.24055297E-11
   1.50750000E-02  -1.29132061E-11
   1.51500003E-02  -1.34262202E-11
   1.52249997E-02  -1.39438036E-11
   1.53000001E-02  -1.44651366E-11
   1.53750004E-02  -1.49893500E-11
   1.54499998E-02  -1.55155177E-11
   1.55250002E-02  -1.60426603E-11
   1.55999996E-02  -1.65697421E-11
   1.56750008E-02  -1.70956721E-11
   1.57500003E-02  -1.76193019E-11
   1.58249997E-02  -1.81394275E-11
   1.59000009E-02  -1.86547860E-11
   1.59750003E-02  -1.91640592E-11
   1.60499997E-02  -1.96658662E-11
   1.61249992E-02  -2.01587722E-11
   1.62000004E-02  -2.06412821E-11
   1.62749998E-02  -2.11118449E-11
   1.63499992E-02  -2.15688491E-11
   1.64250005E-02  -2.20106294E-11
   1.64999999E-02  -2.24354632E-11
   1.65749993E-02  -2.28415724E-11
   1.66500006E-02  -2.32271199E-11
   1.67250000E-02  -2.35902166E-11
   1.67999994E-02  -2.39289213E-11
   1.68750007E-02  -2.42412410E-11
   1.69500001E-02  -2.45251285E-11
   1.70249995E-02  -2.47784935E-11
   1.71000008E-02  -2.49991954E-11
   1.71750002E-02  -2.51850485E-11
   1.72499996E-02  -2.53338253E-11
   1.73250008E-02  -2.54432569E-11
   1.74000002E-02  -2.55110343E-11
   1.74749997E-02  -2.55348104E-11
   1.75500009E-02  -2.55122052E-11
   1.76250003E-02  -2.54408144E-11
   1.76999997E-02  -2.53181989E-11
   1.77749991E-02  -2.51419024E-11
   1.78500004E-02  -2.49094478E-11
   1.79249998E-02  -2.46183386E-11
   1.79999992E-02  -2.42660631E-11
   1.80750005E-02  -2.38501077E-11
   1.81499999E-02  -2.33679517E-11
   1.82249993E-02  -2.28170711E-11
   1.83000006E-02  -2.21949507E-11
   1.83750000E-02  -2.14990803E-11
   1.84499994E-02  -2.07269705E-11
   1.85250007E-02  -1.98761459E-11
   1.86000001E-02  -1.89441587E-11
   1.86749995E-02  -1.79285909E-11
   1.87500007E-02  -1.68270658E-11
   1.88250002E-02  -1.56372415E-11
   1.88999996E-02  -1.43568239E-11
   1.89750008E-02  -1.29835778E-11
   1.90500002E-02  -1.15153295E-11
   1.91249996E-02  -9.94997314E-12
   1.92000009E-02  -8.28547300E-12
   1.92750003E-02  -6.51987882E-12
   1.93499997E-02  -4.65132620E-12
   1.94249991E-02  -2.67804095E-12
   1.95000004E-02  -5.98356163E-13
   1.95749998E-02   1.58928524E-12
   1.96499992E-02   3.88632833E-12
   1.97250005E-02   6.29409025E-12
   1.97999999E-02   8.81375268E-12
   1.98749993E-02   1.14463621E-11
   1.99500006E-02   1.41928188E-11
   2.00250000E-02   1.70538670E-11
   2.00999994E-02   2.00300887E-11
   2.01750007E-02   2.31218950E-11
   2.02500001E-02   2.63295115E-11
   2.03249995E-02   2.96529919E-11
   2.04000007E-02   3.30921818E-11
   2.04750001E-02   3.66467343E-11
   2.05499995E-02   4.03160838E-11
   2.06250008E-02   4.40994637E-11
   2.07000002E-02   4.79958608E-11
   2.07749996E-02   5.20040365E-11
   2.08500009E-02   5.61225129E-11
   2.09250003E-02   6.03495726E-11
   2.09999997E-02   6.46832241E-11
   2.10749991E-02   6.91212296E-11
   2.11500004E-02   7.36610772E-11
   2.12249998E-02   7.82999707E-11
   2.12999992E-02   8.30348498E-11
   2.13750005E-02   8.78623563E-11
   2.14499999E-02   9.27788263E-11
   2.15249993E-02   9.77803116E-11
   2.16000006E-02   1.02862552E-10
   2.16750000E-02   1.08020967E-10
   2.17499994E-02   1.13250652E-10
   2.18250006E-02   1.18546395E-10
   2.19000001E-02   1.23902680E-10
   2.19749995E-02   1.29313601E-10
   2.20500007E-02   1.34772984E-10
   2.21250001E-02   1.40274264E-10
   2.21999995E-02   1.45810558E-10
   2.22750008E-02   1.51374635E-10
   2.23500002E-02   1.56958932E-10
   2.24249996E-02   1.62555525E-10
   2.25000009E-02   1.68156142E-10
   2.25750003E-02   1.73752179E-10
   2.26499997E-02   1.79334658E-10
   2.27249991E-02   1.84894280E-10
   2.28000004E-02   1.90421387E-10
   2.28749998E-02   1.95905972E-10
   2.29499992E-02   2.01337697E-10
   2.30250005E-02   2.06705861E-10
   2.30999999E-02   2.11999446E-10
   2.31749993E-02   2.17207113E-10
   2.32500006E-02   2.22317151E-10
   2.33250000E-02   2.27317554E-10
   2.33999994E-02   2.32196012E-10
   2.34750006E-02   2.36939884E-10
   2.35500000E-02   2.41536235E-10
   2.36249994E-02   2.45971854E-10
   2.37000007E-02   2.50233195E-10
   2.37750001E-02   2.54306493E-10
   2.38499995E-02   2.58177674E-10
   2.39250008E-02   2.61832417E-10
   2.40000002E-02   2.65256178E-10
   2.40749996E-02   2.68434192E-10
   2.41500009E-02   2.71351414E-10
   2.42250003E-02   2.73992662E-10
   2.42999997E-02   2.76342560E-10
   2.43749991E-02   2.78385509E-10
   2.44500004E-02   2.80105800E-10
   2.45249998E-02   2.81487583E-10
   2.45999992E-02   2.82514873E-10
   2.46750005E-02   2.83171597E-10
   2.47499999E-02   2.83441576E-10
   2.48249993E-02   2.83308599E-10
   2.49000005E-02   2.82756374E-10
   2.49749999E-02   2.81768636E-10
   2.50499994E-02   2.80329149E-10
   2.51250006E-02   2.78421619E-10
   2.52000000E-02   2.76029838E-10
   2.52749994E-02   2.73137707E-10
   2.53500007E-02   2.69729183E-10
   2.54250001E-02   2.65788391E-10
   2.54999995E-02   2.61299593E-10
   2.55750008E-02   2.56247218E-10
   2.56500002E-02   2.50615945E-10
   2.57249996E-02   2.44390619E-10
   2.58000009E-02   2.37556447E-10
   2.58750003E-02   2.30098829E-10
   2.59499997E-02   2.22003638E-10
   2.60249991E-02   2.13257037E-10
   2.61000004E-02   2.03845510E-10
   2.61749998E-02   1.93756039E-10
   2.62499992E-02   1.82976051E-10
   2.63250005E-02   1.71493458E-10
   2.63999999E-02   1.59296715E-10
   2.64749993E-02   1.46374801E-10
   2.65500005E-02   1.32717323E-10
   2.66249999E-02   1.18314497E-10
   2.66999993E-02   1.03157198E-10
   2.67750006E-02   8.72370093E-11
   2.68500000E-02   7.05462286E-11
   2.69249994E-02   5.30779240E-11
   2.70000007E-02   3.48259616E-11
   2.70750001E-02   1.57849948E-11
   2.71499995E-02  -4.04939190E-12
   2.72250008E-02  -2.46807522E-11
   2.73000002E-02  -4.61116909E-11
   2.73749996E-02  -6.83437751E-11
   2.74500009E-02  -9.13776346E-11
   2.75250003E-02  -1.15212818E-10
   2.75999997E-02  -1.39847883E-10
   2.76749991E-02  -1.65280234E-10
   2.77500004E-02  -1.91506061E-10
   2.78249998E-02  -2.18520466E-10
   2.78999992E-02  -2.46317328E-10
   2.79750004E-02  -2.74889222E-10
   2.80499998E-02  -3.04227588E-10
   2.81249993E-02  -3.34322403E-10
   2.82000005E-02  -3.65162428E-10
   2.82749999E-02  -3.96735006E-10
   2.83499993E-02  -4.29026176E-10
   2.84250006E-02  -4.62020588E-10
   2.85000000E-02  -4.95701369E-10
   2.85749994E-02  -5.30050115E-10
   2.86500007E-02  -5.65047120E-10
   2.87250001E-02  -6.00671179E-10
   2.87999995E-02  -6.36899311E-10
   2.88750008E-02  -6.73707312E-10
   2.89500002E-02  -7.11069259E-10
   2.90249996E-02  -7.48957618E-10
   2.91000009E-02  -7.87343357E-10
   2.91750003E-02  -8.26195723E-10
   2.92499997E-02  -8.65482463E-10
   2.93249991E-02  -9.05169661E-10
   2.94000003E-02  -9.45221679E-10
   2.94749998E-02  -9.85601378E-10
   2.95499992E-02  -1.02627007E-09
   2.96250004E-02  -1.06718701E-09
   2.96999998E-02  -1.10831011E-09
   2.97749992E-02  -1.14959553E-09
   2.98500005E-02  -1.19099797E-09
   2.99249999E-02  -1.23247024E-09
   2.99999993E-02  -1.27396371E-09
   3.00750006E-02  -1.31542799E-09
   3.01500000E-02  -1.35681122E-09
   3.02249994E-02  -1.39805978E-09
   3.03000007E-02  -1.43911860E-09
   3.03750001E-02  -1.47993107E-09
   3.04499995E-02  -1.52043889E-09
   3.05250008E-02  -1.56058244E-09
   3.06000002E-02  -1.60030056E-09
   3.06749996E-02  -1.63953040E-09
   3.07500008E-02  -1.67820813E-09
   3.08250003E-02  -1.71626802E-09
   3.08999997E-02  -1.75364356E-09
   3.09749991E-02  -1.79026649E-09
   3.10500003E-02  -1.82606730E-09
   3.11249997E-02  -1.86097560E-09
   3.11999992E-02  -1.89491933E-09
   3.12750004E-02  -1.92782590E-09
   3.13500017E-02  -1.95962113E-09
   3.14249992E-02  -1.99023020E-09
   3.15000005E-02  -2.01957673E-09
   3.15750018E-02  -2.04758432E-09
   3.16499993E-02  -2.07417528E-09
   3.17250006E-02  -2.09927120E-09
   3.18000019E-02  -2.12279283E-09
   3.18749994E-02  -2.14466067E-09
   3.19500007E-02  -2.16479412E-09
   3.20249982E-02  -2.18311280E-09
   3.20999995E-02  -2.19953522E-09
   3.21750008E-02  -2.21398033E-09
   3.22499983E-02  -2.22636620E-09
   3.23249996E-02  -2.23661134E-09
   3.24000008E-02  -2.24463381E-09
   3.24749984E-02  -2.25035213E-09
   3.25499997E-02  -2.25368435E-09
   3.26250009E-02  -2.25454944E-09
   3.26999985E-02  -2.25286634E-09
   3.27749997E-02  -2.24855468E-09
   3.28500010E-02  -2.24153451E-09
   3.29249986E-02  -2.23172680E-09
   3.29999998E-02  -2.21905250E-09
   3.30750011E-02  -2.20343455E-09
   3.31499986E-02  -2.18479612E-09
   3.32249999E-02  -2.16306217E-09
   3.33000012E-02  -2.13815787E-09
   3.33749987E-02  -2.11001105E-09
   3.34500000E-02  -2.07854978E-09
   3.35250013E-02  -2.04370476E-09
   3.35999988E-02  -2.00540784E-09
   3.36750001E-02  -1.96359284E-09
   3.37500013E-02  -1.91819538E-09
   3.38249989E-02  -1.86915350E-09
   3.39000002E-02  -1.81640769E-09
   3.39750014E-02  -1.75990000E-09
   3.40499990E-02  -1.69957570E-09
   3.41250002E-02  -1.63538205E-09
   3.42000015E-02  -1.56726965E-09
   3.42749991E-02  -1.49519175E-09
   3.43500003E-02  -1.41910461E-09
   3.44250016E-02  -1.33896749E-09
   3.44999991E-02  -1.25474331E-09
   3.45750004E-02  -1.16639765E-09
   3.46500017E-02  -1.07390052E-09
   3.47249992E-02  -9.77225190E-10
   3.48000005E-02  -8.76348605E-10
   3.48750018E-02  -7.71251618E-10
   3.49499993E-02  -6.61919353E-10
   3.50250006E-02  -5.48341039E-10
   3.51000018E-02  -4.30510017E-10
   3.51749994E-02  -3.08424342E-10
   3.52500007E-02  -1.82086360E-10
   3.53249982E-02  -5.15031039E-11
   3.53999995E-02   8.33134881E-11
   3.54750007E-02   2.22346613E-10
   3.55499983E-02   3.65574543E-10
   3.56249996E-02   5.12970388E-10
   3.57000008E-02   6.64502176E-10
   3.57749984E-02   8.20132406E-10
   3.58499996E-02   9.79818338E-10
   3.59250009E-02   1.14351151E-09
   3.59999985E-02   1.31115774E-09
   3.60749997E-02   1.48269774E-09
   3.61500010E-02   1.65806580E-09
   3.62249985E-02   1.83719051E-09
   3.62999998E-02   2.01999462E-09
   3.63750011E-02   2.20639462E-09
   3.64499986E-02   2.39630138E-09
   3.65249999E-02   2.58961896E-09
   3.66000012E-02   2.78624568E-09
   3.66749987E-02   2.98607339E-09
   3.67500000E-02   3.18898796E-09
   3.68250012E-02   3.39486816E-09
   3.68999988E-02   3.60358698E-09
   3.69750001E-02   3.81501097E-09
   3.70500013E-02   4.02899891E-09
   3.71249989E-02   4.24540536E-09
   3.72000001E-02   4.46407666E-09
   3.72750014E-02   4.68485339E-09
   3.73499990E-02   4.90756857E-09
   3.74250002E-02   5.13205078E-09
   3.75000015E-02   5.35811973E-09
   3.75749990E-02   5.58559021E-09
   3.76500003E-02   5.81426995E-09
   3.77250016E-02   6.04396000E-09
   3.77999991E-02   6.27445562E-09
   3.78750004E-02   6.50554588E-09
   3.79500017E-02   6.73701228E-09
   3.80249992E-02   6.96863145E-09
   3.81000005E-02   7.20017379E-09
   3.81750017E-02   7.43140216E-09
   3.82499993E-02   7.66207542E-09
   3.83250006E-02   7.89194576E-09
   3.84000018E-02   8.12075829E-09
   3.84749994E-02   8.34825542E-09
   3.85500006E-02   8.57417071E-09
   3.86249982E-02   8.79823414E-09
   3.86999995E-02   9.02017039E-09
   3.87750007E-02   9.23969790E-09
   3.88499983E-02   9.45653067E-09
   3.89249995E-02   9.67037916E-09
   3.90000008E-02   9.88094762E-09
   3.90749983E-02   1.00879358E-08
   3.91499996E-02   1.02910409E-08
   3.92250009E-02   1.04899529E-08
   3.92999984E-02   1.06843610E-08
   3.93749997E-02   1.08739489E-08
   3.94500010E-02   1.10583978E-08
   3.95249985E-02   1.12373844E-08
   3.95999998E-02   1.14105845E-08
   3.96750011E-02   1.15776686E-08
   3.97499986E-02   1.17383072E-08
   3.98249999E-02   1.18921673E-08
   3.99000011E-02   1.20389139E-08
   3.99749987E-02   1.21782096E-08
   4.00500000E-02   1.23097186E-08
   4.01250012E-02   1.24330999E-08
   4.01999988E-02   1.25480151E-08
   4.02750000E-02   1.26541249E-08
   4.03500013E-02   1.27510873E-08
   4.04249988E-02   1.28385631E-08
   4.05000001E-02   1.29162139E-08
   4.05750014E-02   1.29836994E-08
   4.06499989E-02   1.30406832E-08
   4.07250002E-02   1.30868303E-08
   4.08000015E-02   1.31218059E-08
   4.08749990E-02   1.31452786E-08
   4.09500003E-02   1.31569209E-08
   4.10250016E-02   1.31564049E-08
   4.10999991E-02   1.31434099E-08
   4.11750004E-02   1.31176181E-08
   4.12500016E-02   1.30787141E-08
   4.13249992E-02   1.30263880E-08
   4.14000005E-02   1.29603377E-08
   4.14750017E-02   1.28802631E-08
   4.15499993E-02   1.27858710E-08
   4.16250005E-02   1.26768755E-08
   4.17000018E-02   1.25529960E-08
   4.17749994E-02   1.24139605E-08
   4.18500006E-02   1.22595036E-08
   4.19249982E-02   1.20893686E-08
   4.19999994E-02   1.19033086E-08
   4.20750007E-02   1.17010819E-08
   4.21499982E-02   1.14824594E-08
   4.22249995E-02   1.12472209E-08
   4.23000008E-02   1.09951559E-08
   4.23749983E-02   1.07260645E-08
   4.24499996E-02   1.04397593E-08
   4.25250009E-02   1.01360627E-08
   4.25999984E-02   9.81481119E-09
   4.26749997E-02   9.47585121E-09
   4.27500010E-02   9.11904330E-09
   4.28249985E-02   8.74426309E-09
   4.28999998E-02   8.35139691E-09
   4.29750010E-02   7.94034616E-09
   4.30499986E-02   7.51102824E-09
   4.31249999E-02   7.06337433E-09
   4.32000011E-02   6.59733024E-09
   4.32749987E-02   6.11285955E-09
   4.33499999E-02   5.60994184E-09
   4.34250012E-02   5.08857267E-09
   4.34999987E-02   4.54876492E-09
   4.35750000E-02   3.99054834E-09
   4.36500013E-02   3.41397066E-09
   4.37249988E-02   2.81909851E-09
   4.38000001E-02   2.20601648E-09
   4.38750014E-02   1.57482849E-09
   4.39499989E-02   9.25656995E-10
   4.40250002E-02   2.58644023E-10
   4.41000015E-02  -4.26047558E-10
   4.41749990E-02  -1.12823539E-09
   4.42500003E-02  -1.84771676E-09
   4.43250015E-02  -2.58426724E-09
   4.43999991E-02  -3.33764172E-09
   4.44750004E-02  -4.10757472E-09
   4.45500016E-02  -4.89377783E-09
   4.46249992E-02  -5.69594150E-09
   4.47000004E-02  -6.51373400E-09
   4.47750017E-02  -7.34680139E-09
   4.48499992E-02  -8.19476664E-09
   4.49250005E-02  -9.05723141E-09
   4.50000018E-02  -9.93377380E-09
   4.50749993E-02  -1.08239488E-08
   4.51500006E-02  -1.17272894E-08
   4.52249981E-02  -1.26433033E-08
   4.52999994E-02  -1.35714764E-08
   4.53750007E-02  -1.45112731E-08
   4.54499982E-02  -1.54621311E-08
   4.55249995E-02  -1.64234688E-08
   4.56000008E-02  -1.73946741E-08
   4.56749983E-02  -1.83751201E-08
   4.57499996E-02  -1.93641512E-08
   4.58250009E-02  -2.03610906E-08
   4.58999984E-02  -2.13652367E-08
   4.59749997E-02  -2.23758665E-08
   4.60500009E-02  -2.33922339E-08
   4.61249985E-02  -2.44135681E-08
   4.61999997E-02  -2.54390784E-08
   4.62750010E-02  -2.64679496E-08
   4.63499986E-02  -2.74993450E-08
   4.64249998E-02  -2.85324067E-08
   4.65000011E-02  -2.95662517E-08
   4.65749986E-02  -3.05999812E-08
   4.66499999E-02  -3.16326734E-08
   4.67250012E-02  -3.26633831E-08
   4.67999987E-02  -3.36911476E-08
   4.68750000E-02  -3.47149793E-08
   4.69500013E-02  -3.57338799E-08
   4.70249988E-02  -3.67468260E-08
   4.71000001E-02  -3.77527769E-08
   4.71750014E-02  -3.87506667E-08
   4.72499989E-02  -3.97394295E-08
   4.73250002E-02  -4.07179677E-08
   4.74000014E-02  -4.16851726E-08
   4.74749990E-02  -4.26399112E-08
   4.75500003E-02  -4.35810534E-08
   4.76250015E-02  -4.45074377E-08
   4.76999991E-02  -4.54179023E-08
   4.77750003E-02  -4.63112606E-08
   4.78500016E-02  -4.71863153E-08
   4.79249991E-02  -4.80418691E-08
   4.80000004E-02  -4.88767036E-08
   4.80750017E-02  -4.96895858E-08
   4.81499992E-02  -5.04792901E-08
   4.82250005E-02  -5.12445659E-08
   4.83000018E-02  -5.19841699E-08
   4.83749993E-02  -5.26968478E-08
   4.84500006E-02  -5.33813349E-08
   4.85250019E-02  -5.40363665E-08
   4.85999994E-02  -5.46606742E-08
   4.86750007E-02  -5.52529862E-08
   4.87499982E-02  -5.58120341E-08
   4.88249995E-02  -5.63365496E-08
   4.89000008E-02  -5.68252574E-08
   4.89749983E-02  -5.72768926E-08
   4.90499996E-02  -5.76901868E-08
   4.91250008E-02  -5.80638861E-08
   4.91999984E-02  -5.83967363E-08
   4.92749996E-02  -5.86874940E-08
   4.93500009E-02  -5.89349156E-08
   4.94249985E-02  -5.91377827E-08
   4.94999997E-02  -5.92948730E-08
   4.95750010E-02  -5.94049858E-08
   4.96499985E-02  -5.94669274E-08
   4.97249998E-02  -5.94795253E-08
   4.98000011E-02  -5.94416143E-08
   4.98749986E-02  -5.93520646E-08
   4.99499999E-02  -5.92097535E-08
   5.00250012E-02  -5.90135762E-08
   5.00999987E-02  -5.87624598E-08
   5.01750000E-02  -5.84553561E-08
   5.02500013E-02  -5.80912207E-08
   5.03249988E-02  -5.76690624E-08
   5.04000001E-02  -5.71879042E-08
   5.04750013E-02  -5.66467939E-08
   5.05499989E-02  -5.60448292E-08
   5.06250001E-02  -5.53811290E-08
   5.07000014E-02  -5.46548407E-08
   5.07749990E-02  -5.38651541E-08
   5.08500002E-02  -5.30112914E-08
   5.09250015E-02  -5.20925276E-08
   5.09999990E-02  -5.11081630E-08
   5.10750003E-02  -5.00575403E-08
   5.11500016E-02  -4.89400520E-08
   5.12249991E-02  -4.77551296E-08
   5.13000004E-02  -4.65022616E-08
   5.13750017E-02  -4.51809719E-08
   5.14499992E-02  -4.37908341E-08
   5.15250005E-02  -4.23314823E-08
   5.16000018E-02  -4.08025933E-08
   5.16749993E-02  -3.92039006E-08
   5.17500006E-02  -3.75351981E-08
   5.18250018E-02  -3.57963259E-08
   5.18999994E-02  -3.39871917E-08
   5.19750006E-02  -3.21077529E-08
   5.20499982E-02  -3.01580343E-08
   5.21249995E-02  -2.81381247E-08
   5.22000007E-02  -2.60481698E-08
   5.22749983E-02  -2.38883811E-08
   5.23499995E-02  -2.16590372E-08
   5.24250008E-02  -1.93604848E-08
   5.24999984E-02  -1.69931340E-08
   5.25749996E-02  -1.45574637E-08
   5.26500009E-02  -1.20540307E-08
   5.27249984E-02  -9.48346113E-09
   5.27999997E-02  -6.84645585E-09
   5.28750010E-02  -4.14378309E-09
   5.29499985E-02  -1.37628797E-09
   5.30249998E-02   1.45510659E-09
   5.31000011E-02   4.34940839E-09
   5.31749986E-02   7.30554151E-09
   5.32499999E-02   1.03223590E-08
   5.33250012E-02   1.33986280E-08
   5.33999987E-02   1.65330398E-08
   5.34750000E-02   1.97242009E-08
   5.35500012E-02   2.29706423E-08
   5.36249988E-02   2.62708149E-08
   5.37000000E-02   2.96230862E-08
   5.37750013E-02   3.30257421E-08
   5.38499989E-02   3.64769939E-08
   5.39250001E-02   3.99749567E-08
   5.40000014E-02   4.35176695E-08
   5.40749989E-02   4.71030965E-08
   5.41500002E-02   5.07291098E-08
   5.42250015E-02   5.43934995E-08
   5.42999990E-02   5.80939741E-08
   5.43750003E-02   6.18281675E-08
   5.44500016E-02   6.55936319E-08
   5.45249991E-02   6.93878235E-08
   5.46000004E-02   7.32081347E-08
   5.46750017E-02   7.70518653E-08
   5.47499992E-02   8.09162373E-08
   5.48250005E-02   8.47984083E-08
   5.49000017E-02   8.86954368E-08
   5.49749993E-02   9.26043171E-08
   5.50500005E-02   9.65219584E-08
   5.51250018E-02   1.00445199E-07
   5.51999994E-02   1.04370805E-07
   5.52750006E-02   1.08295467E-07
   5.53499982E-02   1.12215808E-07
   5.54249994E-02   1.16128369E-07
   5.55000007E-02   1.20029654E-07
   5.55749983E-02   1.23916053E-07
   5.56499995E-02   1.27783920E-07
   5.57250008E-02   1.31629548E-07
   5.57999983E-02   1.35449142E-07
   5.58749996E-02   1.39238907E-07
   5.59500009E-02   1.42994907E-07
   5.60249984E-02   1.46713205E-07
   5.60999997E-02   1.50389809E-07
   5.61750010E-02   1.54020654E-07
   5.62499985E-02   1.57601647E-07
   5.63249998E-02   1.61128654E-07
   5.64000010E-02   1.64597466E-07
   5.64749986E-02   1.68003865E-07
   5.65499999E-02   1.71343601E-07
   5.66250011E-02   1.74612353E-07
   5.66999987E-02   1.77805802E-07
   5.67749999E-02   1.80919585E-07
   5.68500012E-02   1.83949325E-07
   5.69249988E-02   1.86890631E-07
   5.70000000E-02   1.89739069E-07
   5.70750013E-02   1.92490219E-07
   5.71499988E-02   1.95139606E-07
   5.72250001E-02   1.97682809E-07
   5.73000014E-02   2.00115352E-07
   5.73749989E-02   2.02432801E-07
   5.74500002E-02   2.04630723E-07
   5.75250015E-02   2.06704655E-07
   5.75999990E-02   2.08650192E-07
   5.76750003E-02   2.10462929E-07
   5.77500015E-02   2.12138474E-07
   5.78249991E-02   2.13672465E-07
   5.79000004E-02   2.15060595E-07
   5.79750016E-02   2.16298545E-07
   5.80499992E-02   2.17382080E-07
   5.81250004E-02   2.18306994E-07
   5.82000017E-02   2.19069136E-07
   5.82749993E-02   2.19664400E-07
   5.83500005E-02   2.20088765E-07
   5.84250018E-02   2.20338237E-07
   5.84999993E-02   2.20408907E-07
   5.85750006E-02   2.20296926E-07
   5.86499982E-02   2.19998569E-07
   5.87249994E-02   2.19510156E-07
   5.88000007E-02   2.18828106E-07
   5.88749982E-02   2.17948951E-07
   5.89499995E-02   2.16869267E-07
   5.90250008E-02   2.15585814E-07
   5.90999983E-02   2.14095394E-07
   5.91749996E-02   2.12394966E-07
   5.92500009E-02   2.10481574E-07
   5.93249984E-02   2.08352432E-07
   5.93999997E-02   2.06004842E-07
   5.94750009E-02   2.03436272E-07
   5.95499985E-02   2.00644308E-07
   5.96249998E-02   1.97626719E-07
   5.97000010E-02   1.94381400E-07
   5.97749986E-02   1.90906405E-07
   5.98499998E-02   1.87199916E-07
   5.99250011E-02   1.83260354E-07
   5.99999987E-02   1.79086243E-07
   6.00749999E-02   1.74676330E-07
   6.01500012E-02   1.70029523E-07
   6.02249987E-02   1.65144940E-07
   6.03000000E-02   1.60021841E-07
   6.03750013E-02   1.54659745E-07
   6.04499988E-02   1.49058295E-07
   6.05250001E-02   1.43217392E-07
   6.06000014E-02   1.37137121E-07
   6.06749989E-02   1.30817838E-07
   6.07500002E-02   1.24260055E-07
   6.08250014E-02   1.17464509E-07
   6.08999990E-02   1.10432183E-07
   6.09750003E-02   1.03164282E-07
   6.10500015E-02   9.56622230E-08
   6.11249991E-02   8.79277096E-08
   6.12000003E-02   7.99626392E-08
   6.12750016E-02   7.17691861E-08
   6.13499992E-02   6.33497592E-08
   6.14250004E-02   5.47069980E-08
   6.15000017E-02   4.58438194E-08
   6.15749992E-02   3.67633533E-08
   6.16500005E-02   2.74690120E-08
   6.17250018E-02   1.79644868E-08
   6.17999993E-02   8.25370527E-09
   6.18750006E-02  -1.65913439E-09
   6.19499981E-02  -1.17695649E-08
   6.20249994E-02  -2.20728698E-08
   6.21000007E-02  -3.25640563E-08
   6.21749982E-02  -4.32378684E-08
   6.22499995E-02  -5.40887761E-08
   6.23250008E-02  -6.51109886E-08
   6.23999983E-02  -7.62984484E-08
   6.24749996E-02  -8.76448212E-08
   6.25500008E-02  -9.91435058E-08
   6.26249984E-02  -1.10787639E-07
   6.27000034E-02  -1.22570086E-07
   6.27750009E-02  -1.34483443E-07
   6.28499985E-02  -1.46520065E-07
   6.29250035E-02  -1.58672009E-07
   6.30000010E-02  -1.70931088E-07
   6.30749986E-02  -1.83288890E-07
   6.31500036E-02  -1.95736675E-07
   6.32250011E-02  -2.08265533E-07
   6.32999986E-02  -2.20866241E-07
   6.33750036E-02  -2.33529349E-07
   6.34500012E-02  -2.46245179E-07
   6.35249987E-02  -2.59003798E-07
   6.36000037E-02  -2.71795045E-07
   6.36750013E-02  -2.84608518E-07
   6.37499988E-02  -2.97433644E-07
   6.38249964E-02  -3.10259594E-07
   6.39000013E-02  -3.23075255E-07
   6.39749989E-02  -3.35869402E-07
   6.40499964E-02  -3.48630607E-07
   6.41250014E-02  -3.61347162E-07
   6.41999990E-02  -3.74007300E-07