   0.00000000       0.00000000    
   7.50000036E-05   0.00000000    
   1.50000007E-04   0.00000000    
   2.24999996E-04   0.00000000    
   3.00000014E-04   4.84689827E-24
   3.75000003E-04   4.91552735E-23
   4.49999992E-04   2.69380878E-22
   5.24999981E-04   1.06349547E-21
   6.00000028E-04   3.39344949E-21
   6.75000018E-04   9.30149978E-21
   7.50000007E-04   2.27283157E-20
   8.24999996E-04   5.07381893E-20
   8.99999985E-04   1.05274882E-19
   9.74999974E-04   2.05589305E-19
   1.04999996E-03   3.81498387E-19
   1.12499995E-03   6.77652879E-19
   1.20000006E-03   1.15900691E-18
   1.27500005E-03   1.91770079E-18
   1.35000004E-03   3.08158093E-18
   1.42500002E-03   4.82458634E-18
   1.50000001E-03   7.37927659E-18
   1.57500000E-03   1.10517310E-17
   1.64999999E-03   1.62390774E-17
   1.72499998E-03   2.34499748E-17
   1.79999997E-03   3.33282649E-17
   1.87499996E-03   4.66800486E-17
   1.94999995E-03   6.45045103E-17
   2.02500005E-03   8.80287130E-17
   2.09999993E-03   1.18746647E-16
   2.17500003E-03   1.58462540E-16
   2.24999990E-03   2.09339005E-16
   2.32500001E-03   2.73949910E-16
   2.40000011E-03   3.55338262E-16
   2.47499999E-03   4.57078725E-16
   2.55000009E-03   5.83346138E-16
   2.62499996E-03   7.38988707E-16
   2.70000007E-03   9.29605425E-16
   2.77499994E-03   1.16163041E-15
   2.85000005E-03   1.44242045E-15
   2.92499992E-03   1.78034891E-15
   3.00000003E-03   2.18490201E-15
   3.07499990E-03   2.66678074E-15
   3.15000000E-03   3.23800579E-15
   3.22500011E-03   3.91202675E-15
   3.29999998E-03   4.70383103E-15
   3.37500009E-03   5.63006029E-15
   3.44999996E-03   6.70912055E-15
   3.52500007E-03   7.96129740E-15
   3.59999994E-03   9.40886993E-15
   3.67500004E-03   1.10762170E-14
   3.74999992E-03   1.29899397E-14
   3.82500002E-03   1.51789473E-14
   3.89999989E-03   1.76745740E-14
   3.97500023E-03   2.05106589E-14
   4.05000011E-03   2.37236327E-14
   4.12499998E-03   2.73525777E-14
   4.19999985E-03   3.14393151E-14
   4.27500019E-03   3.60284312E-14
   4.35000006E-03   4.11673123E-14
   4.42499993E-03   4.69061435E-14
   4.49999981E-03   5.32979558E-14
   4.57500014E-03   6.03984975E-14
   4.65000002E-03   6.82662341E-14
   4.72499989E-03   7.69623013E-14
   4.80000023E-03   8.65503483E-14
   4.87500010E-03   9.70963557E-14
   4.94999997E-03   1.08668561E-13
   5.02499985E-03   1.21337104E-13
   5.10000018E-03   1.35173814E-13
   5.17500006E-03   1.50252030E-13
   5.24999993E-03   1.66646102E-13
   5.32499980E-03   1.84431016E-13
   5.40000014E-03   2.03682028E-13
   5.47500001E-03   2.24474085E-13
   5.54999989E-03   2.46881319E-13
   5.62500022E-03   2.70976329E-13
   5.70000010E-03   2.96829564E-13
   5.77499997E-03   3.24508649E-13
   5.84999984E-03   3.54077472E-13
   5.92500018E-03   3.85595500E-13
   6.00000005E-03   4.19116591E-13
   6.07499992E-03   4.54687964E-13
   6.14999980E-03   4.92349217E-13
   6.22500014E-03   5.32131414E-13
   6.30000001E-03   5.74055343E-13
   6.37499988E-03   6.18130384E-13
   6.45000022E-03   6.64353338E-13
   6.52500009E-03   7.12706803E-13
   6.59999996E-03   7.63157549E-13
   6.67499984E-03   8.15654781E-13
   6.75000018E-03   8.70128514E-13
   6.82500005E-03   9.26488053E-13
   6.89999992E-03   9.84619938E-13
   6.97499979E-03   1.04438582E-12
   7.05000013E-03   1.10562037E-12
   7.12500000E-03   1.16813059E-12
   7.19999988E-03   1.23169205E-12
   7.27500021E-03   1.29604574E-12
   7.35000009E-03   1.36089870E-12
   7.42499996E-03   1.42592069E-12
   7.49999983E-03   1.49074091E-12
   7.57500017E-03   1.55494563E-12
   7.65000004E-03   1.61807666E-12
   7.72499992E-03   1.67962812E-12
   7.79999979E-03   1.73904467E-12
   7.87500013E-03   1.79571798E-12
   7.95000046E-03   1.84898624E-12
   8.02499987E-03   1.89812966E-12
   8.10000021E-03   1.94236771E-12
   8.17499962E-03   1.98085797E-12
   8.24999996E-03   2.01269383E-12
   8.32500029E-03   2.03690103E-12
   8.39999970E-03   2.05243743E-12
   8.47500004E-03   2.05818739E-12
   8.55000038E-03   2.05296218E-12
   8.62499978E-03   2.03549851E-12
   8.70000012E-03   2.00445281E-12
   8.77500046E-03   1.95840241E-12
   8.84999987E-03   1.89584459E-12
   8.92500021E-03   1.81519621E-12
   8.99999961E-03   1.71478695E-12
   9.07499995E-03   1.59285822E-12
   9.15000029E-03   1.44757047E-12
   9.22499970E-03   1.27699663E-12
   9.30000003E-03   1.07911943E-12
   9.37500037E-03   8.51837914E-13
   9.44999978E-03   5.92962203E-13
   9.52500012E-03   3.00213251E-13
   9.60000046E-03  -2.87686609E-14
   9.67499986E-03  -3.96431721E-13
   9.75000020E-03  -8.05307698E-13
   9.82499961E-03  -1.25800618E-12
   9.89999995E-03  -1.75721959E-12
   9.97500028E-03  -2.30571682E-12
   1.00499997E-02  -2.90633923E-12
   1.01250000E-02  -3.56199792E-12
   1.02000004E-02  -4.27566706E-12
   1.02749998E-02  -5.05038632E-12
   1.03500001E-02  -5.88925046E-12
   1.04250005E-02  -6.79539888E-12
   1.04999999E-02  -7.77202001E-12
   1.05750002E-02  -8.82233956E-12
   1.06499996E-02  -9.94961231E-12
   1.07249999E-02  -1.11571091E-11
   1.08000003E-02  -1.24481233E-11
   1.08749997E-02  -1.38259491E-11
   1.09500000E-02  -1.52938669E-11
   1.10250004E-02  -1.68551440E-11
   1.10999998E-02  -1.85130210E-11
   1.11750001E-02  -2.02706948E-11
   1.12500004E-02  -2.21313159E-11
   1.13249999E-02  -2.40979615E-11
   1.14000002E-02  -2.61736327E-11
   1.14749996E-02  -2.83612352E-11
   1.15499999E-02  -3.06635550E-11
   1.16250003E-02  -3.30832688E-11
   1.16999997E-02  -3.56228796E-11
   1.17750000E-02  -3.82847642E-11
   1.18500004E-02  -4.10710910E-11
   1.19249998E-02  -4.39838513E-11
   1.20000001E-02  -4.70248007E-11
   1.20750004E-02  -5.01954520E-11
   1.21499998E-02  -5.34970783E-11
   1.22250002E-02  -5.69306546E-11
   1.22999996E-02  -6.04968506E-11
   1.23749999E-02  -6.41960166E-11
   1.24500003E-02  -6.80281526E-11
   1.25249997E-02  -7.19928839E-11
   1.26000000E-02  -7.60894264E-11
   1.26750004E-02  -8.03165798E-11
   1.27499998E-02  -8.46726925E-11
   1.28250001E-02  -8.91556273E-11
   1.29000004E-02  -9.37627684E-11
   1.29749998E-02  -9.84909515E-11
   1.30500002E-02  -1.03336457E-10
   1.31249996E-02  -1.08294998E-10
   1.31999999E-02  -1.13361667E-10
   1.32750003E-02  -1.18530921E-10
   1.33499997E-02  -1.23796556E-10
   1.34250000E-02  -1.29151675E-10
   1.35000004E-02  -1.34588646E-10
   1.35749998E-02  -1.40099141E-10
   1.36500001E-02  -1.45674015E-10
   1.37250004E-02  -1.51303317E-10
   1.37999998E-02  -1.56976307E-10
   1.38750002E-02  -1.62681382E-10
   1.39499996E-02  -1.68406067E-10
   1.40249999E-02  -1.74136969E-10
   1.41000003E-02  -1.79859794E-10
   1.41749997E-02  -1.85559290E-10
   1.42500000E-02  -1.91219249E-10
   1.43250003E-02  -1.96822447E-10
   1.43999998E-02  -2.02350706E-10
   1.44750001E-02  -2.07784775E-10
   1.45500004E-02  -2.13104367E-10
   1.46249998E-02  -2.18288138E-10
   1.47000002E-02  -2.23313673E-10
   1.47749996E-02  -2.28157479E-10
   1.48499999E-02  -2.32794950E-10
   1.49250003E-02  -2.37200426E-10
   1.49999997E-02  -2.41347053E-10
   1.50750000E-02  -2.45206938E-10
   1.51500003E-02  -2.48751020E-10
   1.52249997E-02  -2.51949156E-10
   1.53000001E-02  -2.54770038E-10
   1.53750004E-02  -2.57181332E-10
   1.54499998E-02  -2.59149507E-10
   1.55250002E-02  -2.60639954E-10
   1.55999996E-02  -2.61617061E-10
   1.56750008E-02  -2.62044081E-10
   1.57500003E-02  -2.61883265E-10
   1.58249997E-02  -2.61095812E-10
   1.59000009E-02  -2.59641947E-10
   1.59750003E-02  -2.57480953E-10
   1.60499997E-02  -2.54571114E-10
   1.61249992E-02  -2.50869936E-10
   1.62000004E-02  -2.46333953E-10
   1.62749998E-02  -2.40918924E-10
   1.63499992E-02  -2.34579883E-10
   1.64250005E-02  -2.27271188E-10
   1.64999999E-02  -2.18946389E-10
   1.65749993E-02  -2.09558676E-10
   1.66500006E-02  -1.99060546E-10
   1.67250000E-02  -1.87404120E-10
   1.67999994E-02  -1.74541118E-10
   1.68750007E-02  -1.60422967E-10
   1.69500001E-02  -1.45000803E-10
   1.70249995E-02  -1.28225652E-10
   1.71000008E-02  -1.10048602E-10
   1.71750002E-02  -9.04208028E-11
   1.72499996E-02  -6.92934182E-11
   1.73250008E-02  -4.66179248E-11
   1.74000002E-02  -2.23462620E-11
   1.74749997E-02   3.56931086E-12
   1.75500009E-02   3.11757876E-11
   1.76250003E-02   6.05194575E-11
   1.76999997E-02   9.16457812E-11
   1.77749991E-02   1.24599248E-10
   1.78500004E-02   1.59423308E-10
   1.79249998E-02   1.96159908E-10
   1.79999992E-02   2.34849806E-10
   1.80750005E-02   2.75532180E-10
   1.81499999E-02   3.18244264E-10
   1.82249993E-02   3.63021613E-10
   1.83000006E-02   4.09897782E-10
   1.83750000E-02   4.58904220E-10
   1.84499994E-02   5.10069875E-10
   1.85250007E-02   5.63421199E-10
   1.86000001E-02   6.18981921E-10
   1.86749995E-02   6.76772971E-10
   1.87500007E-02   7.36812111E-10
   1.88250002E-02   7.99113942E-10
   1.88999996E-02   8.63689842E-10
   1.89750008E-02   9.30547250E-10
   1.90500002E-02   9.99689997E-10
   1.91249996E-02   1.07111808E-09
   1.92000009E-02   1.14482701E-09
   1.92750003E-02   1.22080812E-09
   1.93499997E-02   1.29904842E-09
   1.94249991E-02   1.37952982E-09
   1.95000004E-02   1.46222967E-09
   1.95749998E-02   1.54712010E-09
   1.96499992E-02   1.63416791E-09
   1.97250005E-02   1.72333436E-09
   1.97999999E-02   1.81457538E-09
   1.98749993E-02   1.90784077E-09
   1.99500006E-02   2.00307415E-09
   2.00250000E-02   2.10021378E-09
   2.00999994E-02   2.19919061E-09
   2.01750007E-02   2.29992980E-09
   2.02500001E-02   2.40234943E-09
   2.03249995E-02   2.50636067E-09
   2.04000007E-02   2.61186828E-09
   2.04750001E-02   2.71876921E-09
   2.05499995E-02   2.82695334E-09
   2.06250008E-02   2.93630364E-09
   2.07000002E-02   3.04669512E-09
   2.07749996E-02   3.15799498E-09
   2.08500009E-02   3.27006289E-09
   2.09250003E-02   3.38275097E-09
   2.09999997E-02   3.49590290E-09
   2.10749991E-02   3.60935459E-09
   2.11500004E-02   3.72293418E-09
   2.12249998E-02   3.83646093E-09
   2.12999992E-02   3.94974720E-09
   2.13750005E-02   4.06259515E-09
   2.14499999E-02   4.17480051E-09
   2.15249993E-02   4.28615010E-09
   2.16000006E-02   4.39642234E-09
   2.16750000E-02   4.50538762E-09
   2.17499994E-02   4.61280836E-09
   2.18250006E-02   4.71843897E-09
   2.19000001E-02   4.82202456E-09
   2.19749995E-02   4.92330443E-09
   2.20500007E-02   5.02200814E-09
   2.21250001E-02   5.11785769E-09
   2.21999995E-02   5.21056887E-09
   2.22750008E-02   5.29984812E-09
   2.23500002E-02   5.38539657E-09
   2.24249996E-02   5.46690693E-09
   2.25000009E-02   5.54406476E-09
   2.25750003E-02   5.61654989E-09
   2.26499997E-02   5.68403413E-09
   2.27249991E-02   5.74618575E-09
   2.28000004E-02   5.80266502E-09
   2.28749998E-02   5.85312776E-09
   2.29499992E-02   5.89722449E-09
   2.30250005E-02   5.93459992E-09
   2.30999999E-02   5.96489480E-09
   2.31749993E-02   5.98774630E-09
   2.32500006E-02   6.00278716E-09
   2.33250000E-02   6.00964745E-09
   2.33999994E-02   6.00795413E-09
   2.34750006E-02   5.99733152E-09
   2.35500000E-02   5.97740257E-09
   2.36249994E-02   5.94778848E-09
   2.37000007E-02   5.90811089E-09
   2.37750001E-02   5.85799054E-09
   2.38499995E-02   5.79704773E-09
   2.39250008E-02   5.72490499E-09
   2.40000002E-02   5.64118618E-09
   2.40749996E-02   5.54551693E-09
   2.41500009E-02   5.43752554E-09
   2.42250003E-02   5.31684430E-09
   2.42999997E-02   5.18311172E-09
   2.43749991E-02   5.03596986E-09
   2.44500004E-02   4.87506613E-09
   2.45249998E-02   4.70005501E-09
   2.45999992E-02   4.51059856E-09
   2.46750005E-02   4.30636593E-09
   2.47499999E-02   4.08703649E-09
   2.48249993E-02   3.85229981E-09
   2.49000005E-02   3.60185481E-09
   2.49749999E-02   3.33541150E-09
   2.50499994E-02   3.05269299E-09
   2.51250006E-02   2.75343703E-09
   2.52000000E-02   2.43739362E-09
   2.52749994E-02   2.10432805E-09
   2.53500007E-02   1.75402093E-09
   2.54250001E-02   1.38627110E-09
   2.54999995E-02   1.00089526E-09
   2.55750008E-02   5.97726646E-10
   2.56500002E-02   1.76619386E-10
   2.57249996E-02  -2.62550676E-10
   2.58000009E-02  -7.19887538E-10
   2.58750003E-02  -1.19547217E-09
   2.59499997E-02  -1.68936409E-09
   2.60249991E-02  -2.20159735E-09
   2.61000004E-02  -2.73218004E-09
   2.61749998E-02  -3.28109517E-09
   2.62499992E-02  -3.84829901E-09
   2.63250005E-02  -4.43372050E-09
   2.63999999E-02  -5.03725861E-09
   2.64749993E-02  -5.65878411E-09
   2.65500005E-02  -6.29813712E-09
   2.66249999E-02  -6.95512670E-09
   2.66999993E-02  -7.62952812E-09
   2.67750006E-02  -8.32108515E-09
   2.68500000E-02  -9.02950781E-09
   2.69249994E-02  -9.75447279E-09
   2.70000007E-02  -1.04956186E-08
   2.70750001E-02  -1.12525527E-08
   2.71499995E-02  -1.20248433E-08
   2.72250008E-02  -1.28120217E-08
   2.73000002E-02  -1.36135805E-08
   2.73749996E-02  -1.44289780E-08
   2.74500009E-02  -1.52576316E-08
   2.75250003E-02  -1.60989195E-08
   2.75999997E-02  -1.69521783E-08
   2.76749991E-02  -1.78167063E-08
   2.77500004E-02  -1.86917646E-08
   2.78249998E-02  -1.95765661E-08
   2.78999992E-02  -2.04702904E-08
   2.79750004E-02  -2.13720739E-08
   2.80499998E-02  -2.22810073E-08
   2.81249993E-02  -2.31961472E-08
   2.82000005E-02  -2.41165026E-08
   2.82749999E-02  -2.50410448E-08
   2.83499993E-02  -2.59687027E-08
   2.84250006E-02  -2.68983626E-08
   2.85000000E-02  -2.78288717E-08
   2.85749994E-02  -2.87590343E-08
   2.86500007E-02  -2.96876177E-08
   2.87250001E-02  -3.06133501E-08
   2.87999995E-02  -3.15349133E-08
   2.88750008E-02  -3.24509521E-08
   2.89500002E-02  -3.33600809E-08
   2.90249996E-02  -3.42608679E-08
   2.91000009E-02  -3.51518459E-08
   2.91750003E-02  -3.60315120E-08
   2.92499997E-02  -3.68983351E-08
   2.93249991E-02  -3.77507376E-08
   2.94000003E-02  -3.85871139E-08
   2.94749998E-02  -3.94058262E-08
   2.95499992E-02  -4.02052152E-08
   2.96250004E-02  -4.09835756E-08
   2.96999998E-02  -4.17391846E-08
   2.97749992E-02  -4.24702904E-08
   2.98500005E-02  -4.31751097E-08
   2.99249999E-02  -4.38518519E-08
   2.99999993E-02  -4.44986838E-08
   3.00750006E-02  -4.51137652E-08
   3.01500000E-02  -4.56952378E-08
   3.02249994E-02  -4.62412189E-08
   3.03000007E-02  -4.67498182E-08
   3.03750001E-02  -4.72191353E-08
   3.04499995E-02  -4.76472479E-08
   3.05250008E-02  -4.80322377E-08
   3.06000002E-02  -4.83721720E-08
   3.06749996E-02  -4.86651217E-08
   3.07500008E-02  -4.89091541E-08
   3.08250003E-02  -4.91023435E-08
   3.08999997E-02  -4.92427539E-08
   3.09749991E-02  -4.93284702E-08
   3.10500003E-02  -4.93575811E-08
   3.11249997E-02  -4.93281824E-08
   3.11999992E-02  -4.92383982E-08
   3.12750004E-02  -4.90863634E-08
   3.13500017E-02  -4.88702376E-08
   3.14249992E-02  -4.85882019E-08
   3.15000005E-02  -4.82384586E-08
   3.15750018E-02  -4.78192455E-08
   3.16499993E-02  -4.73288395E-08
   3.17250006E-02  -4.67655461E-08
   3.18000019E-02  -4.61277132E-08
   3.18749994E-02  -4.54137385E-08
   3.19500007E-02  -4.46220447E-08
   3.20249982E-02  -4.37511289E-08
   3.20999995E-02  -4.27995310E-08
   3.21750008E-02  -4.17658512E-08
   3.22499983E-02  -4.06487430E-08
   3.23249996E-02  -3.94469275E-08
   3.24000008E-02  -3.81591967E-08
   3.24749984E-02  -3.67844137E-08
   3.25499997E-02  -3.53215022E-08
   3.26250009E-02  -3.37694708E-08
   3.26999985E-02  -3.21273994E-08
   3.27749997E-02  -3.03944674E-08
   3.28500010E-02  -2.85699464E-08
   3.29249986E-02  -2.66531774E-08
   3.29999998E-02  -2.46435992E-08
   3.30750011E-02  -2.25407586E-08
   3.31499986E-02  -2.03442898E-08
   3.32249999E-02  -1.80539548E-08
   3.33000012E-02  -1.56696043E-08
   3.33749987E-02  -1.31911948E-08
   3.34500000E-02  -1.06187974E-08
   3.35250013E-02  -7.95260302E-09
   3.35999988E-02  -5.19292565E-09
   3.36750001E-02  -2.34018827E-09
   3.37500013E-02   6.05048900E-10
   3.38249989E-02   3.64209707E-09
   3.39000002E-02   6.77015732E-09
   3.39750014E-02   9.98828042E-09
   3.40499990E-02   1.32953817E-08
   3.41250002E-02   1.66902474E-08
   3.42000015E-02   2.01715249E-08
   3.42749991E-02   2.37377282E-08
   3.43500003E-02   2.73872143E-08
   3.44250016E-02   3.11182049E-08
   3.44999991E-02   3.49287710E-08
   3.45750004E-02   3.88168431E-08
   3.46500017E-02   4.27801936E-08
   3.47249992E-02   4.68164529E-08
   3.48000005E-02   5.09231022E-08
   3.48750018E-02   5.50974661E-08
   3.49499993E-02   5.93367098E-08
   3.50250006E-02   6.36378417E-08
   3.51000018E-02   6.79977461E-08
   3.51749994E-02   7.24131297E-08
   3.52500007E-02   7.68805606E-08
   3.53249982E-02   8.13964363E-08
   3.53999995E-02   8.59570051E-08
   3.54750007E-02   9.05583804E-08
   3.55499983E-02   9.51965191E-08
   3.56249996E-02   9.98672007E-08
   3.57000008E-02   1.04566098E-07
   3.57749984E-02   1.09288706E-07
   3.58499996E-02   1.14030378E-07
   3.59250009E-02   1.18786339E-07
   3.59999985E-02   1.23551658E-07
   3.60749997E-02   1.28321261E-07
   3.61500010E-02   1.33089941E-07
   3.62249985E-02   1.37852382E-07
   3.62999998E-02   1.42603085E-07
   3.63750011E-02   1.47336479E-07
   3.64499986E-02   1.52046823E-07
   3.65249999E-02   1.56728277E-07
   3.66000012E-02   1.61374871E-07
   3.66749987E-02   1.65980538E-07
   3.67500000E-02   1.70539110E-07
   3.68250012E-02   1.75044278E-07
   3.68999988E-02   1.79489660E-07
   3.69750001E-02   1.83868778E-07
   3.70500013E-02   1.88175079E-07
   3.71249989E-02   1.92401885E-07
   3.72000001E-02   1.96542459E-07
   3.72750014E-02   2.00590023E-07
   3.73499990E-02   2.04537685E-07
   3.74250002E-02   2.08378523E-07
   3.75000015E-02   2.12105562E-07
   3.75749990E-02   2.15711736E-07
   3.76500003E-02   2.19190014E-07
   3.77250016E-02   2.22533288E-07
   3.77999991E-02   2.25734425E-07
   3.78750004E-02   2.28786263E-07
   3.79500017E-02   2.31681682E-07
   3.80249992E-02   2.34413505E-07
   3.81000005E-02   2.36974586E-07
   3.81750017E-02   2.39357774E-07
   3.82499993E-02   2.41555966E-07
   3.83250006E-02   2.43562084E-07
   3.84000018E-02   2.45369080E-07
   3.84749994E-02   2.46969933E-07
   3.85500006E-02   2.48357765E-07
   3.86249982E-02   2.49525641E-07
   3.86999995E-02   2.50466798E-07
   3.87750007E-02   2.51174527E-07
   3.88499983E-02   2.51642177E-07
   3.89249995E-02   2.51863270E-07
   3.90000008E-02   2.51831352E-07
   3.90749983E-02   2.51540172E-07
   3.91499996E-02   2.50983618E-07
   3.92250009E-02   2.50155637E-07
   3.92999984E-02   2.49050373E-07
   3.93749997E-02   2.47662172E-07
   3.94500010E-02   2.45985461E-07
   3.95249985E-02   2.44014927E-07
   3.95999998E-02   2.41745397E-07
   3.96750011E-02   2.39171953E-07
   3.97499986E-02   2.36289807E-07
   3.98249999E-02   2.33094411E-07
   3.99000011E-02   2.29581502E-07
   3.99749987E-02   2.25747044E-07
   4.00500000E-02   2.21587186E-07
   4.01250012E-02   2.17098346E-07
   4.01999988E-02   2.12277243E-07
   4.02750000E-02   2.07120877E-07
   4.03500013E-02   2.01626534E-07
   4.04249988E-02   1.95791742E-07
   4.05000001E-02   1.89614354E-07
   4.05750014E-02   1.83092538E-07
   4.06499989E-02   1.76224830E-07
   4.07250002E-02   1.69009979E-07
   4.08000015E-02   1.61447147E-07
   4.08749990E-02   1.53535794E-07
   4.09500003E-02   1.45275791E-07
   4.10250016E-02   1.36667310E-07
   4.10999991E-02   1.27710919E-07
   4.11750004E-02   1.18407513E-07
   4.12500016E-02   1.08758464E-07
   4.13249992E-02   9.87654118E-08
   4.14000005E-02   8.84304043E-08
   4.14750017E-02   7.77559279E-08
   4.15499993E-02   6.67448390E-08
   4.16250005E-02   5.54003954E-08
   4.17000018E-02   4.37262564E-08
   4.17749994E-02   3.17265183E-08
   4.18500006E-02   1.94056877E-08
   4.19249982E-02   6.76869005E-09
   4.19999994E-02  -6.17915319E-09
   4.20750007E-02  -1.94320879E-08
   4.21499982E-02  -3.29838947E-08
   4.22249995E-02  -4.68279637E-08
   4.23000008E-02  -6.09572126E-08
   4.23749983E-02  -7.53641771E-08
   4.24499996E-02  -9.00409418E-08
   4.25250009E-02  -1.04979172E-07
   4.25999984E-02  -1.20170100E-07
   4.26749997E-02  -1.35604509E-07
   4.27500010E-02  -1.51272786E-07
   4.28249985E-02  -1.67164828E-07
   4.28999998E-02  -1.83270117E-07
   4.29750010E-02  -1.99577812E-07
   4.30499986E-02  -2.16076572E-07
   4.31249999E-02  -2.32754601E-07
   4.32000011E-02  -2.49599765E-07
   4.32749987E-02  -2.66599528E-07
   4.33499999E-02  -2.83740917E-07
   4.34250012E-02  -3.01010573E-07
   4.34999987E-02  -3.18394768E-07
   4.35750000E-02  -3.35879349E-07
   4.36500013E-02  -3.53449792E-07
   4.37249988E-02  -3.71091204E-07
   4.38000001E-02  -3.88788379E-07
   4.38750014E-02  -4.06525743E-07
   4.39499989E-02  -4.24287379E-07
   4.40250002E-02  -4.42057001E-07
   4.41000015E-02  -4.59818040E-07
   4.41749990E-02  -4.77553613E-07
   4.42500003E-02  -4.95246468E-07
   4.43250015E-02  -5.12879183E-07
   4.43999991E-02  -5.30434022E-07
   4.44750004E-02  -5.47892853E-07
   4.45500016E-02  -5.65237485E-07
   4.46249992E-02  -5.82449388E-07
   4.47000004E-02  -5.99509804E-07
   4.47750017E-02  -6.16399802E-07
   4.48499992E-02  -6.33100285E-07
   4.49250005E-02  -6.49591868E-07
   4.50000018E-02  -6.65855111E-07
   4.50749993E-02  -6.81870290E-07
   4.51500006E-02  -6.97617736E-07
   4.52249981E-02  -7.13077554E-07
   4.52999994E-02  -7.28229736E-07
   4.53750007E-02  -7.43054215E-07
   4.54499982E-02  -7.57530870E-07
   4.55249995E-02  -7.71639463E-07
   4.56000008E-02  -7.85359930E-07
   4.56749983E-02  -7.98671920E-07
   4.57499996E-02  -8.11555367E-07
   4.58250009E-02  -8.23989978E-07
   4.58999984E-02  -8.35955746E-07
   4.59749997E-02  -8.47432545E-07
   4.60500009E-02  -8.58400483E-07
   4.61249985E-02  -8.68839606E-07
   4.61999997E-02  -8.78730191E-07
   4.62750010E-02  -8.88052682E-07
   4.63499986E-02  -8.96787697E-07
   4.64249998E-02  -9.04916021E-07
   4.65000011E-02  -9.12418557E-07
   4.65749986E-02  -9.19276545E-07
   4.66499999E-02  -9.25471511E-07
   4.67250012E-02  -9.30985209E-07
   4.67999987E-02  -9.35799562E-07
   4.68750000E-02  -9.39897063E-07
   4.69500013E-02  -9.43260318E-07
   4.70249988E-02  -9.45872330E-07
   4.71000001E-02  -9.47716671E-07
   4.71750014E-02  -9.48777028E-07
   4.72499989E-02  -9.49037599E-07
   4.73250002E-02  -9.48483148E-07
   4.74000014E-02  -9.47098783E-07
   4.74749990E-02  -9.44870180E-07
   4.75500003E-02  -9.41783355E-07
   4.76250015E-02  -9.37824893E-07
   4.76999991E-02  -9.32982061E-07
   4.77750003E-02  -9.27242638E-07
   4.78500016E-02  -9.20594914E-07
   4.79249991E-02  -9.13027634E-07
   4.80000004E-02  -9.04530509E-07
   4.80750017E-02  -8.95093649E-07
   4.81499992E-02  -8.84707731E-07
   4.82250005E-02  -8.73364399E-07
   4.83000018E-02  -8.61055810E-07
   4.83749993E-02  -8.47774686E-07
   4.84500006E-02  -8.33514662E-07
   4.85250019E-02  -8.18269996E-07
   4.85999994E-02  -8.02035856E-07
   4.86750007E-02  -7.84808094E-07
   4.87499982E-02  -7.66583128E-07
   4.88249995E-02  -7.47358513E-07
   4.89000008E-02  -7.27132544E-07
   4.89749983E-02  -7.05904085E-07
   4.90499996E-02  -6.83673079E-07
   4.91250008E-02  -6.60440321E-07
   4.91999984E-02  -6.36207233E-07
   4.92749996E-02  -6.10976315E-07
   4.93500009E-02  -5.84750921E-07
   4.94249985E-02  -5.57535202E-07
   4.94999997E-02  -5.29334329E-07
   4.95750010E-02  -5.00154272E-07
   4.96499985E-02  -4.70001936E-07
   4.97249998E-02  -4.38885053E-07
   4.98000011E-02  -4.06812404E-07
   4.98749986E-02  -3.73793654E-07
   4.99499999E-02  -3.39839374E-07
   5.00250012E-02  -3.04961247E-07
   5.00999987E-02  -2.69171721E-07
   5.01750000E-02  -2.32484226E-07
   5.02500013E-02  -1.94913170E-07
   5.03249988E-02  -1.56473760E-07
   5.04000001E-02  -1.17182303E-07
   5.04750013E-02  -7.70561641E-08
   5.05499989E-02  -3.61134767E-08
   5.06250001E-02   5.62679991E-09
   5.07000014E-02   4.81445106E-08
   5.07749990E-02   9.14186060E-08
   5.08500002E-02   1.35427385E-07
   5.09250015E-02   1.80147936E-07
   5.09999990E-02   2.25556363E-07
   5.10750003E-02   2.71628096E-07
   5.11500016E-02   3.18337555E-07
   5.12249991E-02   3.65658281E-07
   5.13000004E-02   4.13562901E-07
   5.13750017E-02   4.62023195E-07
   5.14499992E-02   5.11010057E-07
   5.15250005E-02   5.60493504E-07
   5.16000018E-02   6.10442783E-07
   5.16749993E-02   6.60826174E-07
   5.17500006E-02   7.11611165E-07
   5.18250018E-02   7.62764557E-07
   5.18999994E-02   8.14252246E-07
   5.19750006E-02   8.66039557E-07
   5.20499982E-02   9.18090848E-07
   5.21249995E-02   9.70369683E-07
   5.22000007E-02   1.02283923E-06
   5.22749983E-02   1.07546168E-06
   5.23499995E-02   1.12819862E-06
   5.24250008E-02   1.18101093E-06
   5.24999984E-02   1.23385905E-06
   5.25749996E-02   1.28670240E-06
   5.26500009E-02   1.33950027E-06
   5.27249984E-02   1.39221106E-06
   5.27999997E-02   1.44479293E-06
   5.28750010E-02   1.49720324E-06
   5.29499985E-02   1.54939892E-06
   5.30249998E-02   1.60133652E-06
   5.31000011E-02   1.65297183E-06
   5.31749986E-02   1.70426074E-06
   5.32499999E-02   1.75515845E-06
   5.33250012E-02   1.80561972E-06
   5.33999987E-02   1.85559907E-06
   5.34750000E-02   1.90505079E-06
   5.35500012E-02   1.95392909E-06
   5.36249988E-02   2.00218710E-06
   5.37000000E-02   2.04977869E-06
   5.37750013E-02   2.09665723E-06
   5.38499989E-02   2.14277566E-06
   5.39250001E-02   2.18808691E-06
   5.40000014E-02   2.23254438E-06
   5.40749989E-02   2.27610053E-06
   5.41500002E-02   2.31870854E-06
   5.42250015E-02   2.36032133E-06
   5.42999990E-02   2.40089139E-06
   5.43750003E-02   2.44037187E-06
   5.44500016E-02   2.47871617E-06
   5.45249991E-02   2.51587744E-06
   5.46000004E-02   2.55180885E-06
   5.46750017E-02   2.58646446E-06
   5.47499992E-02   2.61979812E-06
   5.48250005E-02   2.65176413E-06
   5.49000017E-02   2.68231679E-06
   5.49749993E-02   2.71141084E-06
   5.50500005E-02   2.73900196E-06
   5.51250018E-02   2.76504579E-06
   5.51999994E-02   2.78949847E-06
   5.52750006E-02   2.81231655E-06
   5.53499982E-02   2.83345753E-06
   5.54249994E-02   2.85287933E-06
   5.55000007E-02   2.87053990E-06
   5.55749983E-02   2.88639876E-06
   5.56499995E-02   2.90041567E-06
   5.57250008E-02   2.91255083E-06
   5.57999983E-02   2.92276582E-06
   5.58749996E-02   2.93102289E-06
   5.59500009E-02   2.93728476E-06
   5.60249984E-02   2.94151505E-06
   5.60999997E-02   2.94367851E-06
   5.61750010E-02   2.94374104E-06
   5.62499985E-02   2.94166898E-06
   5.63249998E-02   2.93743005E-06
   5.64000010E-02   2.93099288E-06
   5.64749986E-02   2.92232721E-06
   5.65499999E-02   2.91140395E-06
   5.66250011E-02   2.89819536E-06
   5.66999987E-02   2.88267438E-06
   5.67749999E-02   2.86481554E-06
   5.68500012E-02   2.84459452E-06
   5.69249988E-02   2.82198857E-06
   5.70000000E-02   2.79697588E-06
   5.70750013E-02   2.76953597E-06
   5.71499988E-02   2.73964997E-06
   5.72250001E-02   2.70730061E-06
   5.73000014E-02   2.67247174E-06
   5.73749989E-02   2.63514858E-06
   5.74500002E-02   2.59531839E-06
   5.75250015E-02   2.55296914E-06
   5.75999990E-02   2.50809148E-06
   5.76750003E-02   2.46067680E-06
   5.77500015E-02   2.41071848E-06
   5.78249991E-02   2.35821130E-06
   5.79000004E-02   2.30315186E-06
   5.79750016E-02   2.24553878E-06
   5.80499992E-02   2.18537184E-06
   5.81250004E-02   2.12265309E-06
   5.82000017E-02   2.05738593E-06
   5.82749993E-02   1.98957605E-06
   5.83500005E-02   1.91923027E-06
   5.84250018E-02   1.84635780E-06
   5.84999993E-02   1.77096990E-06
   5.85750006E-02   1.69307918E-06
   5.86499982E-02   1.61270032E-06
   5.87249994E-02   1.52985046E-06
   5.88000007E-02   1.44454827E-06
   5.88749982E-02   1.35681398E-06
   5.89499995E-02   1.26666998E-06
   5.90250008E-02   1.17414106E-06
   5.90999983E-02   1.07925393E-06
   5.91749996E-02   9.82037136E-07
   5.92500009E-02   8.82521476E-07
   5.93249984E-02   7.80739413E-07
   5.93999997E-02   6.76725620E-07
   5.94750009E-02   5.70517159E-07
   5.95499985E-02   4.62152684E-07
   5.96249998E-02   3.51673123E-07
   5.97000010E-02   2.39121533E-07
   5.97749986E-02   1.24543106E-07
   5.98499998E-02   7.98492739E-09
   5.99250011E-02  -1.10503883E-07
   5.99999987E-02  -2.30872018E-07
   6.00749999E-02  -3.53065957E-07
   6.01500012E-02  -4.77030255E-07
   6.02249987E-02  -6.02707360E-07
   6.03000000E-02  -7.30037868E-07
   6.03750013E-02  -8.58960107E-07
   6.04499988E-02  -9.89409841E-07
   6.05250001E-02  -1.12132125E-06
   6.06000014E-02  -1.25462680E-06
   6.06749989E-02  -1.38925691E-06
   6.07500002E-02  -1.52513951E-06
   6.08250014E-02  -1.66220070E-06
   6.08999990E-02  -1.80036454E-06
   6.09750003E-02  -1.93955339E-06
   6.10500015E-02  -2.07968742E-06
   6.11249991E-02  -2.22068525E-06
   6.12000003E-02  -2.36246365E-06
   6.12750016E-02  -2.50493713E-06
   6.13499992E-02  -2.64801861E-06
   6.14250004E-02  -2.79161895E-06
   6.15000017E-02  -2.93564722E-06
   6.15749992E-02  -3.08001131E-06
   6.16500005E-02  -3.22461688E-06
   6.17250018E-02  -3.36936819E-06
   6.17999993E-02  -3.51416816E-06
   6.18750006E-02  -3.65891719E-06
   6.19499981E-02  -3.80351480E-06
   6.20249994E-02  -3.94785911E-06
   6.21000007E-02  -4.09184622E-06
   6.21749982E-02  -4.23537131E-06
   6.22499995E-02  -4.37832796E-06
   6.23250008E-02  -4.52060885E-06
   6.23999983E-02  -4.66210486E-06
   6.24749996E-02  -4.80270546E-06
   6.25500008E-02  -4.94230017E-06
   6.26249984E-02  -5.08077619E-06
   6.27000034E-02  -5.21801985E-06
   6.27750009E-02  -5.35391746E-06
   6.28499985E-02  -5.48835305E-06
   6.29250035E-02  -5.62121113E-06
   6.30000010E-02  -5.75237436E-06
   6.30749986E-02  -5.88172543E-06
   6.31500036E-02  -6.00914655E-06
   6.32250011E-02  -6.13451766E-06
   6.32999986E-02  -6.25772009E-06
   6.33750036E-02  -6.37863423E-06
   6.34500012E-02  -6.49714002E-06
   6.35249987E-02  -6.61311742E-06
   6.36000037E-02  -6.72644546E-06
   6.36750013E-02  -6.83700409E-06
   6.37499988E-02  -6.94467235E-06
   6.38249964E-02  -7.04932927E-06
   6.39000013E-02  -7.15085571E-06
   6.39749989E-02  -7.24913116E-06
   6.40499964E-02  -7.34403557E-06
   6.41250014E-02  -7.43544979E-06
   6.41999990E-02  -7.52325468E-06