   0.00000000       0.00000000    
   7.50000036E-05   0.00000000    
   1.50000007E-04   0.00000000    
   2.24999996E-04   0.00000000    
   3.00000014E-04   9.63846832E-26
   3.75000003E-04   9.56102573E-25
   4.49999992E-04   5.10692891E-24
   5.24999981E-04   1.96003710E-23
   6.00000028E-04   6.06997228E-23
   6.75000018E-04   1.61302024E-22
   7.50000007E-04   3.81830943E-22
   8.24999996E-04   8.25326171E-22
   8.99999985E-04   1.65743851E-21
   9.74999974E-04   3.13194995E-21
   1.04999996E-03   5.62227069E-21
   1.12499995E-03   9.65940645E-21
   1.20000006E-03   1.59766316E-20
   1.27500005E-03   2.55607356E-20
   1.35000004E-03   3.97097197E-20
   1.42500002E-03   6.00964551E-20
   1.50000001E-03   8.88377696E-20
   1.57500000E-03   1.28568566E-19
   1.64999999E-03   1.82517118E-19
   1.72499998E-03   2.54581532E-19
   1.79999997E-03   3.49407863E-19
   1.87499996E-03   4.72461784E-19
   1.94999995E-03   6.30094647E-19
   2.02500005E-03   8.29602546E-19
   2.09999993E-03   1.07926794E-18
   2.17500003E-03   1.38838926E-18
   2.24999990E-03   1.76728234E-18
   2.32500001E-03   2.22725576E-18
   2.40000011E-03   2.78053785E-18
   2.47499999E-03   3.44021232E-18
   2.55000009E-03   4.22007531E-18
   2.62499996E-03   5.13440932E-18
   2.70000007E-03   6.19775041E-18
   2.77499994E-03   7.42459037E-18
   2.85000005E-03   8.82899829E-18
   2.92499992E-03   1.04240804E-17
   3.00000003E-03   1.22214430E-17
   3.07499990E-03   1.42304976E-17
   3.15000000E-03   1.64578005E-17
   3.22500011E-03   1.89060649E-17
   3.29999998E-03   2.15731036E-17
   3.37500009E-03   2.44507740E-17
   3.44999996E-03   2.75234092E-17
   3.52500007E-03   3.07667182E-17
   3.59999994E-03   3.41463201E-17
   3.67500004E-03   3.76153435E-17
   3.74999992E-03   4.11123488E-17
   3.82500002E-03   4.45601203E-17
   3.89999989E-03   4.78622121E-17
   3.97500023E-03   5.09008071E-17
   4.05000011E-03   5.35342723E-17
   4.12499998E-03   5.55928171E-17
   4.19999985E-03   5.68768198E-17
   4.27500019E-03   5.71528996E-17
   4.35000006E-03   5.61490134E-17
   4.42499993E-03   5.35510574E-17
   4.49999981E-03   4.89994564E-17
   4.57500014E-03   4.20833265E-17
   4.65000002E-03   3.23360618E-17
   4.72499989E-03   1.92303892E-17
   4.80000023E-03   2.17340403E-18
   4.87500010E-03  -1.94980566E-17
   4.94999997E-03  -4.65271988E-17
   5.02499985E-03  -7.97410779E-17
   5.10000018E-03  -1.20055485E-16
   5.17500006E-03  -1.68482477E-16
   5.24999993E-03  -2.26138103E-16
   5.32499980E-03  -2.94253502E-16
   5.40000014E-03  -3.74176354E-16
   5.47500001E-03  -4.67372716E-16
   5.54999989E-03  -5.75444274E-16
   5.62500022E-03  -7.00142346E-16
   5.70000010E-03  -8.43363389E-16
   5.77499997E-03  -1.00716580E-15
   5.84999984E-03  -1.19377563E-15
   5.92500018E-03  -1.40558585E-15
   6.00000005E-03  -1.64517865E-15
   6.07499992E-03  -1.91532466E-15
   6.14999980E-03  -2.21901118E-15
   6.22500014E-03  -2.55941826E-15
   6.30000001E-03  -2.93994442E-15
   6.37499988E-03  -3.36422661E-15
   6.45000022E-03  -3.83614446E-15
   6.52500009E-03  -4.35980436E-15
   6.59999996E-03  -4.93956792E-15
   6.67499984E-03  -5.58007433E-15
   6.75000018E-03  -6.28621140E-15
   6.82500005E-03  -7.06315872E-15
   6.89999992E-03  -7.91637670E-15
   6.97499979E-03  -8.85160187E-15
   7.05000013E-03  -9.87486511E-15
   7.12500000E-03  -1.09925175E-14
   7.19999988E-03  -1.22111997E-14
   7.27500021E-03  -1.35378650E-14
   7.35000009E-03  -1.49798336E-14
   7.42499996E-03  -1.65447100E-14
   7.49999983E-03  -1.82403378E-14
   7.57500017E-03  -2.00749604E-14
   7.65000004E-03  -2.20571852E-14
   7.72499992E-03  -2.41958519E-14
   7.79999979E-03  -2.65001762E-14
   7.87500013E-03  -2.89797042E-14
   7.95000046E-03  -3.16442531E-14
   8.02499987E-03  -3.45039549E-14
   8.10000021E-03  -3.75692350E-14
   8.17499962E-03  -4.08508202E-14
   8.24999996E-03  -4.43597965E-14
   8.32500029E-03  -4.81073921E-14
   8.39999970E-03  -5.21050183E-14
   8.47500004E-03  -5.63646047E-14
   8.55000038E-03  -6.08982469E-14
   8.62499978E-03  -6.57180609E-14
   8.70000012E-03  -7.08364099E-14
   8.77500046E-03  -7.62659860E-14
   8.84999987E-03  -8.20193929E-14
   8.92500021E-03  -8.81094446E-14
   8.99999961E-03  -9.45492870E-14
   9.07499995E-03  -1.01351822E-13
   9.15000029E-03  -1.08530020E-13
   9.22499970E-03  -1.16096884E-13
   9.30000003E-03  -1.24065241E-13
   9.37500037E-03  -1.32447940E-13
   9.44999978E-03  -1.41257882E-13
   9.52500012E-03  -1.50507590E-13
   9.60000046E-03  -1.60209302E-13
   9.67499986E-03  -1.70374931E-13
   9.75000020E-03  -1.81016213E-13
   9.82499961E-03  -1.92144613E-13
   9.89999995E-03  -2.03770879E-13
   9.97500028E-03  -2.15905351E-13
   1.00499997E-02  -2.28557814E-13
   1.01250000E-02  -2.41737213E-13
   1.02000004E-02  -2.55452235E-13
   1.02749998E-02  -2.69710551E-13
   1.03500001E-02  -2.84518719E-13
   1.04250005E-02  -2.99882325E-13
   1.04999999E-02  -3.15806111E-13
   1.05750002E-02  -3.32293898E-13
   1.06499996E-02  -3.49348046E-13
   1.07249999E-02  -3.66969503E-13
   1.08000003E-02  -3.85158078E-13
   1.08749997E-02  -4.03912364E-13
   1.09500000E-02  -4.23228835E-13
   1.10250004E-02  -4.43102125E-13
   1.10999998E-02  -4.63525648E-13
   1.11750001E-02  -4.84490486E-13
   1.12500004E-02  -5.05986149E-13
   1.13249999E-02  -5.27999411E-13
   1.14000002E-02  -5.50515091E-13
   1.14749996E-02  -5.73516061E-13
   1.15499999E-02  -5.96981937E-13
   1.16250003E-02  -6.20889841E-13
   1.16999997E-02  -6.45214459E-13
   1.17750000E-02  -6.69928902E-13
   1.18500004E-02  -6.95001511E-13
   1.19249998E-02  -7.20398242E-13
   1.20000001E-02  -7.46082341E-13
   1.20750004E-02  -7.72012445E-13
   1.21499998E-02  -7.98144374E-13
   1.22250002E-02  -8.24429880E-13
   1.22999996E-02  -8.50817355E-13
   1.23749999E-02  -8.77251993E-13
   1.24500003E-02  -9.03674433E-13
   1.25249997E-02  -9.30022010E-13
   1.26000000E-02  -9.56226092E-13
   1.26750004E-02  -9.82213551E-13
   1.27499998E-02  -1.00790795E-12
   1.28250001E-02  -1.03322754E-12
   1.29000004E-02  -1.05808656E-12
   1.29749998E-02  -1.08239481E-12
   1.30500002E-02  -1.10605535E-12
   1.31249996E-02  -1.12896671E-12
   1.31999999E-02  -1.15102426E-12
   1.32750003E-02  -1.17211655E-12
   1.33499997E-02  -1.19212561E-12
   1.34250000E-02  -1.21092903E-12
   1.35000004E-02  -1.22839835E-12
   1.35749998E-02  -1.24439825E-12
   1.36500001E-02  -1.25878995E-12
   1.37250004E-02  -1.27142903E-12
   1.37999998E-02  -1.28216188E-12
   1.38750002E-02  -1.29083007E-12
   1.39499996E-02  -1.29727002E-12
   1.40249999E-02  -1.30131192E-12
   1.41000003E-02  -1.30278058E-12
   1.41749997E-02  -1.30149168E-12
   1.42500000E-02  -1.29725538E-12
   1.43250003E-02  -1.28987923E-12
   1.43999998E-02  -1.27916287E-12
   1.44750001E-02  -1.26489823E-12
   1.45500004E-02  -1.24686936E-12
   1.46249998E-02  -1.22485529E-12
   1.47000002E-02  -1.19863147E-12
   1.47749996E-02  -1.16796438E-12
   1.48499999E-02  -1.13261386E-12
   1.49250003E-02  -1.09233532E-12
   1.49999997E-02  -1.04687884E-12
   1.50750000E-02  -9.95985195E-13
   1.51500003E-02  -9.39391902E-13
   1.52249997E-02  -8.76832949E-13
   1.53000001E-02  -8.08033924E-13
   1.53750004E-02  -7.32715700E-13
   1.54499998E-02  -6.50594487E-13
   1.55250002E-02  -5.61382321E-13
   1.55999996E-02  -4.64786141E-13
   1.56750008E-02  -3.60506519E-13
   1.57500003E-02  -2.48240556E-13
   1.58249997E-02  -1.27680581E-13
   1.59000009E-02   1.48262212E-15
   1.59750003E-02   1.39560225E-13
   1.60499997E-02   2.86870869E-13
   1.61249992E-02   4.43735462E-13
   1.62000004E-02   6.10473640E-13
   1.62749998E-02   7.87406490E-13
   1.63499992E-02   9.74859841E-13
   1.64250005E-02   1.17316248E-12
   1.64999999E-02   1.38263966E-12
   1.65749993E-02   1.60361546E-12
   1.66500006E-02   1.83641557E-12
   1.67250000E-02   2.08136655E-12
   1.67999994E-02   2.33878975E-12
   1.68750007E-02   2.60900698E-12
   1.69500001E-02   2.89233784E-12
   1.70249995E-02   3.18909742E-12
   1.71000008E-02   3.49959471E-12
   1.71750002E-02   3.82413155E-12
   1.72499996E-02   4.16300805E-12
   1.73250008E-02   4.51651867E-12
   1.74000002E-02   4.88495008E-12
   1.74749997E-02   5.26857767E-12
   1.75500009E-02   5.66766946E-12
   1.76250003E-02   6.08248608E-12
   1.76999997E-02   6.51328037E-12
   1.77749991E-02   6.96028565E-12
   1.78500004E-02   7.42372483E-12
   1.79249998E-02   7.90380955E-12
   1.79999992E-02   8.40073410E-12
   1.80750005E-02   8.91468236E-12
   1.81499999E-02   9.44582086E-12
   1.82249993E-02   9.99429619E-12
   1.83000006E-02   1.05602358E-11
   1.83750000E-02   1.11437456E-11
   1.84499994E-02   1.17449141E-11
   1.85250007E-02   1.23638062E-11
   1.86000001E-02   1.30004627E-11
   1.86749995E-02   1.36549027E-11
   1.87500007E-02   1.43271159E-11
   1.88250002E-02   1.50170657E-11
   1.88999996E-02   1.57246854E-11
   1.89750008E-02   1.64498814E-11
   1.90500002E-02   1.71925269E-11
   1.91249996E-02   1.79524624E-11
   1.92000009E-02   1.87294954E-11
   1.92750003E-02   1.95234037E-11
   1.93499997E-02   2.03339220E-11
   1.94249991E-02   2.11607433E-11
   1.95000004E-02   2.20035292E-11
   1.95749998E-02   2.28618964E-11
   1.96499992E-02   2.37354233E-11
   1.97250005E-02   2.46236399E-11
   1.97999999E-02   2.55260344E-11
   1.98749993E-02   2.64420465E-11
   1.99500006E-02   2.73710707E-11
   2.00250000E-02   2.83124531E-11
   2.00999994E-02   2.92654824E-11
   2.01750007E-02   3.02294058E-11
   2.02500001E-02   3.12034010E-11
   2.03249995E-02   3.21866041E-11
   2.04000007E-02   3.31780922E-11
   2.04750001E-02   3.41768905E-11
   2.05499995E-02   3.51819546E-11
   2.06250008E-02   3.61921847E-11
   2.07000002E-02   3.72064185E-11
   2.07749996E-02   3.82234348E-11
   2.08500009E-02   3.92419430E-11
   2.09250003E-02   4.02605935E-11
   2.09999997E-02   4.12779672E-11
   2.10749991E-02   4.22925826E-11
   2.11500004E-02   4.33028786E-11
   2.12249998E-02   4.43072350E-11
   2.12999992E-02   4.53039585E-11
   2.13750005E-02   4.62912972E-11
   2.14499999E-02   4.72674053E-11
   2.15249993E-02   4.82303607E-11
   2.16000006E-02   4.91781997E-11
   2.16750000E-02   5.01088615E-11
   2.17499994E-02   5.10202228E-11
   2.18250006E-02   5.19100804E-11
   2.19000001E-02   5.27761515E-11
   2.19749995E-02   5.36160873E-11
   2.20500007E-02   5.44274556E-11
   2.21250001E-02   5.52077516E-11
   2.21999995E-02   5.59543974E-11
   2.22750008E-02   5.66647389E-11
   2.23500002E-02   5.73360491E-11
   2.24249996E-02   5.79655282E-11
   2.25000009E-02   5.85502896E-11
   2.25750003E-02   5.90874016E-11
   2.26499997E-02   5.95738320E-11
   2.27249991E-02   6.00064651E-11
   2.28000004E-02   6.03821507E-11
   2.28749998E-02   6.06976552E-11
   2.29499992E-02   6.09496828E-11
   2.30250005E-02   6.11348472E-11
   2.30999999E-02   6.12497136E-11
   2.31749993E-02   6.12908058E-11
   2.32500006E-02   6.12545500E-11
   2.33250000E-02   6.11373452E-11
   2.33999994E-02   6.09355136E-11
   2.34750006E-02   6.06452943E-11
   2.35500000E-02   6.02629335E-11
   2.36249994E-02   5.97846148E-11
   2.37000007E-02   5.92064731E-11
   2.37750001E-02   5.85245533E-11
   2.38499995E-02   5.77349106E-11
   2.39250008E-02   5.68335656E-11
   2.40000002E-02   5.58164834E-11
   2.40749996E-02   5.46796081E-11
   2.41500009E-02   5.34189012E-11
   2.42250003E-02   5.20302586E-11
   2.42999997E-02   5.05095236E-11
   2.43749991E-02   4.88526372E-11
   2.44500004E-02   4.70554602E-11
   2.45249998E-02   4.51138571E-11
   2.45999992E-02   4.30237374E-11
   2.46750005E-02   4.07810001E-11
   2.47499999E-02   3.83815549E-11
   2.48249993E-02   3.58213216E-11
   2.49000005E-02   3.30962757E-11
   2.49749999E-02   3.02024343E-11
   2.50499994E-02   2.71358422E-11
   2.51250006E-02   2.38925945E-11
   2.52000000E-02   2.04688402E-11
   2.52749994E-02   1.68608131E-11
   2.53500007E-02   1.30647966E-11
   2.54250001E-02   9.07717391E-12
   2.54999995E-02   4.89439999E-12
   2.55750008E-02   5.13035903E-13
   2.56500002E-02  -4.07025542E-12
   2.57249996E-02  -8.85871758E-12
   2.58000009E-02  -1.38554437E-11
   2.58750003E-02  -1.90634106E-11
   2.59499997E-02  -2.44854571E-11
   2.60249991E-02  -3.01242607E-11
   2.61000004E-02  -3.59823213E-11
   2.61749998E-02  -4.20619789E-11
   2.62499992E-02  -4.83654401E-11
   2.63250005E-02  -5.48947103E-11
   2.63999999E-02  -6.16515727E-11
   2.64749993E-02  -6.86375470E-11
   2.65500005E-02  -7.58540314E-11
   2.66249999E-02  -8.33022470E-11
   2.66999993E-02  -9.09830614E-11
   2.67750006E-02  -9.88970641E-11
   2.68500000E-02  -1.07044665E-10
   2.69249994E-02  -1.15425995E-10
   2.70000007E-02  -1.24040930E-10
   2.70750001E-02  -1.32889033E-10
   2.71499995E-02  -1.41969519E-10
   2.72250008E-02  -1.51281265E-10
   2.73000002E-02  -1.60822911E-10
   2.73749996E-02  -1.70592762E-10
   2.74500009E-02  -1.80588752E-10
   2.75250003E-02  -1.90808425E-10
   2.75999997E-02  -2.01248948E-10
   2.76749991E-02  -2.11907172E-10
   2.77500004E-02  -2.22779517E-10
   2.78249998E-02  -2.33861985E-10
   2.78999992E-02  -2.45150206E-10
   2.79750004E-02  -2.56639460E-10
   2.80499998E-02  -2.68324502E-10
   2.81249993E-02  -2.80199614E-10
   2.82000005E-02  -2.92258745E-10
   2.82749999E-02  -3.04495262E-10
   2.83499993E-02  -3.16902171E-10
   2.84250006E-02  -3.29472005E-10
   2.85000000E-02  -3.42196826E-10
   2.85749994E-02  -3.55068142E-10
   2.86500007E-02  -3.68076958E-10
   2.87250001E-02  -3.81213672E-10
   2.87999995E-02  -3.94468402E-10
   2.88750008E-02  -4.07830686E-10
   2.89500002E-02  -4.21289448E-10
   2.90249996E-02  -4.34833086E-10
   2.91000009E-02  -4.48449528E-10
   2.91750003E-02  -4.62126032E-10
   2.92499997E-02  -4.75849526E-10
   2.93249991E-02  -4.89606189E-10
   2.94000003E-02  -5.03381836E-10
   2.94749998E-02  -5.17161480E-10
   2.95499992E-02  -5.30929856E-10
   2.96250004E-02  -5.44670919E-10
   2.96999998E-02  -5.58368018E-10
   2.97749992E-02  -5.72004166E-10
   2.98500005E-02  -5.85561766E-10
   2.99249999E-02  -5.99022498E-10
   2.99999993E-02  -6.12367712E-10
   3.00750006E-02  -6.25578034E-10
   3.01500000E-02  -6.38633646E-10
   3.02249994E-02  -6.51514120E-10
   3.03000007E-02  -6.64198530E-10
   3.03750001E-02  -6.76665390E-10
   3.04499995E-02  -6.88892610E-10
   3.05250008E-02  -7.00857761E-10
   3.06000002E-02  -7.12537751E-10
   3.06749996E-02  -7.23908988E-10
   3.07500008E-02  -7.34947492E-10
   3.08250003E-02  -7.45628781E-10
   3.08999997E-02  -7.55927820E-10
   3.09749991E-02  -7.65819130E-10
   3.10500003E-02  -7.75276954E-10
   3.11249997E-02  -7.84274978E-10
   3.11999992E-02  -7.92786503E-10
   3.12750004E-02  -8.00784383E-10
   3.13500017E-02  -8.08241252E-10
   3.14249992E-02  -8.15129242E-10
   3.15000005E-02  -8.21420099E-10
   3.15750018E-02  -8.27085511E-10
   3.16499993E-02  -8.32096669E-10
   3.17250006E-02  -8.36424596E-10
   3.18000019E-02  -8.40039927E-10
   3.18749994E-02  -8.42913295E-10
   3.19500007E-02  -8.45015058E-10
   3.20249982E-02  -8.46315462E-10
   3.20999995E-02  -8.46784476E-10
   3.21750008E-02  -8.46392179E-10
   3.22499983E-02  -8.45108483E-10
   3.23249996E-02  -8.42903136E-10
   3.24000008E-02  -8.39746161E-10
   3.24749984E-02  -8.35607361E-10
   3.25499997E-02  -8.30456648E-10
   3.26250009E-02  -8.24264212E-10
   3.26999985E-02  -8.17000190E-10
   3.27749997E-02  -8.08634992E-10
   3.28500010E-02  -7.99139144E-10
   3.29249986E-02  -7.88483667E-10
   3.29999998E-02  -7.76639697E-10
   3.30750011E-02  -7.63578756E-10
   3.31499986E-02  -7.49272755E-10
   3.32249999E-02  -7.33694050E-10
   3.33000012E-02  -7.16815274E-10
   3.33749987E-02  -6.98609948E-10
   3.34500000E-02  -6.79051870E-10
   3.35250013E-02  -6.58115673E-10
   3.35999988E-02  -6.35776487E-10
   3.36750001E-02  -6.12010109E-10
   3.37500013E-02  -5.86793170E-10
   3.38249989E-02  -5.60103186E-10
   3.39000002E-02  -5.31918509E-10
   3.39750014E-02  -5.02218322E-10
   3.40499990E-02  -4.70982642E-10
   3.41250002E-02  -4.38192760E-10
   3.42000015E-02  -4.03830969E-10
   3.42749991E-02  -3.67880476E-10
   3.43500003E-02  -3.30325989E-10
   3.44250016E-02  -2.91153268E-10
   3.44999991E-02  -2.50349158E-10
   3.45750004E-02  -2.07902182E-10
   3.46500017E-02  -1.63802097E-10
   3.47249992E-02  -1.18039897E-10
   3.48000005E-02  -7.06082068E-11
   3.48750018E-02  -2.15011620E-11
   3.49499993E-02   2.92852860E-11
   3.50250006E-02   8.17540063E-11
   3.51000018E-02   1.35905828E-10
   3.51749994E-02   1.91739818E-10
   3.52500007E-02   2.49253423E-10
   3.53249982E-02   3.08442161E-10
   3.53999995E-02   3.69299619E-10
   3.54750007E-02   4.31817665E-10
   3.55499983E-02   4.95985975E-10
   3.56249996E-02   5.61792168E-10
   3.57000008E-02   6.29221786E-10
   3.57749984E-02   6.98258784E-10
   3.58499996E-02   7.68884345E-10
   3.59250009E-02   8.41077263E-10
   3.59999985E-02   9.14814668E-10
   3.60749997E-02   9.90071025E-10
   3.61500010E-02   1.06681874E-09
   3.62249985E-02   1.14502774E-09
   3.62999998E-02   1.22466537E-09
   3.63750011E-02   1.30569699E-09
   3.64499986E-02   1.38808476E-09
   3.65249999E-02   1.47178936E-09
   3.66000012E-02   1.55676805E-09
   3.66749987E-02   1.64297598E-09
   3.67500000E-02   1.73036574E-09
   3.68250012E-02   1.81888726E-09
   3.68999988E-02   1.90848781E-09
   3.69750001E-02   1.99911199E-09
   3.70500013E-02   2.09070206E-09
   3.71249989E-02   2.18319740E-09
   3.72000001E-02   2.27653474E-09
   3.72750014E-02   2.37064857E-09
   3.73499990E-02   2.46546983E-09
   3.74250002E-02   2.56092747E-09
   3.75000015E-02   2.65694777E-09
   3.75749990E-02   2.75345347E-09
   3.76500003E-02   2.85036550E-09
   3.77250016E-02   2.94760283E-09
   3.77999991E-02   3.04508019E-09
   3.78750004E-02   3.14271076E-09
   3.79500017E-02   3.24040506E-09
   3.80249992E-02   3.33807093E-09
   3.81000005E-02   3.43561357E-09
   3.81750017E-02   3.53293572E-09
   3.82499993E-02   3.62993702E-09
   3.83250006E-02   3.72651598E-09
   3.84000018E-02   3.82256760E-09
   3.84749994E-02   3.91798594E-09
   3.85500006E-02   4.01266043E-09
   3.86249982E-02   4.10648093E-09
   3.86999995E-02   4.19933288E-09
   3.87750007E-02   4.29110036E-09
   3.88499983E-02   4.38166659E-09
   3.89249995E-02   4.47091120E-09
   3.90000008E-02   4.55871207E-09
   3.90749983E-02   4.64494665E-09
   3.91499996E-02   4.72948836E-09
   3.92250009E-02   4.81221063E-09
   3.92999984E-02   4.89298513E-09
   3.93749997E-02   4.97168129E-09
   3.94500010E-02   5.04816811E-09
   3.95249985E-02   5.12231191E-09
   3.95999998E-02   5.19397858E-09
   3.96750011E-02   5.26303356E-09
   3.97499986E-02   5.32934052E-09
   3.98249999E-02   5.39276224E-09
   3.99000011E-02   5.45316015E-09
   3.99749987E-02   5.51039614E-09
   4.00500000E-02   5.56433033E-09
   4.01250012E-02   5.61482461E-09
   4.01999988E-02   5.66173819E-09
   4.02750000E-02   5.70493164E-09
   4.03500013E-02   5.74426418E-09
   4.04249988E-02   5.77959680E-09
   4.05000001E-02   5.81078874E-09
   4.05750014E-02   5.83770143E-09
   4.06499989E-02   5.86019588E-09
   4.07250002E-02   5.87813487E-09
   4.08000015E-02   5.89138027E-09
   4.08749990E-02   5.89979754E-09
   4.09500003E-02   5.90325033E-09
   4.10250016E-02   5.90160631E-09
   4.10999991E-02   5.89473226E-09
   4.11750004E-02   5.88249849E-09
   4.12500016E-02   5.86477578E-09
   4.13249992E-02   5.84143800E-09
   4.14000005E-02   5.81235993E-09
   4.14750017E-02   5.77742076E-09
   4.15499993E-02   5.73650061E-09
   4.16250005E-02   5.68948266E-09
   4.17000018E-02   5.63625235E-09
   4.17749994E-02   5.57669910E-09
   4.18500006E-02   5.51071588E-09
   4.19249982E-02   5.43819834E-09
   4.19999994E-02   5.35904565E-09
   4.20750007E-02   5.27316102E-09
   4.21499982E-02   5.18045118E-09
   4.22249995E-02   5.08082731E-09
   4.23000008E-02   4.97420416E-09
   4.23749983E-02   4.86050222E-09
   4.24499996E-02   4.73964556E-09
   4.25250009E-02   4.61156358E-09
   4.25999984E-02   4.47619053E-09
   4.26749997E-02   4.33346603E-09
   4.27500010E-02   4.18333546E-09
   4.28249985E-02   4.02574862E-09
   4.28999998E-02   3.86066246E-09
   4.29750010E-02   3.68803899E-09
   4.30499986E-02   3.50784579E-09
   4.31249999E-02   3.32005756E-09
   4.32000011E-02   3.12465498E-09
   4.32749987E-02   2.92162428E-09
   4.33499999E-02   2.71095968E-09
   4.34250012E-02   2.49266208E-09
   4.34999987E-02   2.26673880E-09
   4.35750000E-02   2.03320405E-09
   4.36500013E-02   1.79208082E-09
   4.37249988E-02   1.54339763E-09
   4.38000001E-02   1.28719113E-09
   4.38750014E-02   1.02350617E-09
   4.39499989E-02   7.52394647E-10
   4.40250002E-02   4.73916517E-10
   4.41000015E-02   1.88139740E-10
   4.41749990E-02  -1.04859690E-10
   4.42500003E-02  -4.04997230E-10
   4.43250015E-02  -7.12180592E-10
   4.43999991E-02  -1.02630904E-09
   4.44750004E-02  -1.34727318E-09
   4.45500016E-02  -1.67495573E-09
   4.46249992E-02  -2.00923056E-09
   4.47000004E-02  -2.34996289E-09
   4.47750017E-02  -2.69700862E-09
   4.48499992E-02  -3.05021541E-09
   4.49250005E-02  -3.40942252E-09
   4.50000018E-02  -3.77445986E-09
   4.50749993E-02  -4.14514867E-09
   4.51500006E-02  -4.52130244E-09
   4.52249981E-02  -4.90272445E-09
   4.52999994E-02  -5.28920907E-09
   4.53750007E-02  -5.68054315E-09
   4.54499982E-02  -6.07650286E-09
   4.55249995E-02  -6.47685727E-09
   4.56000008E-02  -6.88136614E-09
   4.56749983E-02  -7.28978033E-09
   4.57499996E-02  -7.70184272E-09
   4.58250009E-02  -8.11728640E-09
   4.58999984E-02  -8.53583693E-09
   4.59749997E-02  -8.95721275E-09
   4.60500009E-02  -9.38112166E-09
   4.61249985E-02  -9.80726433E-09
   4.61999997E-02  -1.02353317E-08
   4.62750010E-02  -1.06650102E-08
   4.63499986E-02  -1.10959757E-08
   4.64249998E-02  -1.15278977E-08
   4.65000011E-02  -1.19604371E-08
   4.65749986E-02  -1.23932482E-08
   4.66499999E-02  -1.28259785E-08
   4.67250012E-02  -1.32582665E-08
   4.67999987E-02  -1.36897453E-08
   4.68750000E-02  -1.41200411E-08
   4.69500013E-02  -1.45487746E-08
   4.70249988E-02  -1.49755586E-08
   4.71000001E-02  -1.54000013E-08
   4.71750014E-02  -1.58217048E-08
   4.72499989E-02  -1.62402642E-08
   4.73250002E-02  -1.66552709E-08
   4.74000014E-02  -1.70663128E-08
   4.74749990E-02  -1.74729706E-08
   4.75500003E-02  -1.78748198E-08
   4.76250015E-02  -1.82714341E-08
   4.76999991E-02  -1.86623819E-08
   4.77750003E-02  -1.90472313E-08
   4.78500016E-02  -1.94255421E-08
   4.79249991E-02  -1.97968735E-08
   4.80000004E-02  -2.01607833E-08
   4.80750017E-02  -2.05168273E-08
   4.81499992E-02  -2.08645545E-08
   4.82250005E-02  -2.12035172E-08
   4.83000018E-02  -2.15332676E-08
   4.83749993E-02  -2.18533547E-08
   4.84500006E-02  -2.21633289E-08
   4.85250019E-02  -2.24627357E-08
   4.85999994E-02  -2.27511254E-08
   4.86750007E-02  -2.30280506E-08
   4.87499982E-02  -2.32930617E-08
   4.88249995E-02  -2.35457094E-08
   4.89000008E-02  -2.37855478E-08
   4.89749983E-02  -2.40121381E-08
   4.90499996E-02  -2.42250398E-08
   4.91250008E-02  -2.44238159E-08
   4.91999984E-02  -2.46080347E-08
   4.92749996E-02  -2.47772647E-08
   4.93500009E-02  -2.49310812E-08
   4.94249985E-02  -2.50690668E-08
   4.94999997E-02  -2.51908094E-08
   4.95750010E-02  -2.52959005E-08
   4.96499985E-02  -2.53839367E-08
   4.97249998E-02  -2.54545238E-08
   4.98000011E-02  -2.55072745E-08
   4.98749986E-02  -2.55418087E-08
   4.99499999E-02  -2.55577550E-08
   5.00250012E-02  -2.55547512E-08
   5.00999987E-02  -2.55324419E-08
   5.01750000E-02  -2.54904826E-08
   5.02500013E-02  -2.54285393E-08
   5.03249988E-02  -2.53462851E-08
   5.04000001E-02  -2.52434074E-08
   5.04750013E-02  -2.51196042E-08
   5.05499989E-02  -2.49745824E-08
   5.06250001E-02  -2.48080667E-08
   5.07000014E-02  -2.46197871E-08
   5.07749990E-02  -2.44094913E-08
   5.08500002E-02  -2.41769413E-08
   5.09250015E-02  -2.39219080E-08
   5.09999990E-02  -2.36441799E-08
   5.10750003E-02  -2.33435600E-08
   5.11500016E-02  -2.30198633E-08
   5.12249991E-02  -2.26729231E-08
   5.13000004E-02  -2.23025882E-08
   5.13750017E-02  -2.19087202E-08
   5.14499992E-02  -2.14911999E-08
   5.15250005E-02  -2.10499209E-08
   5.16000018E-02  -2.05848032E-08
   5.16749993E-02  -2.00957757E-08
   5.17500006E-02  -1.95827905E-08
   5.18250018E-02  -1.90458138E-08
   5.18999994E-02  -1.84848297E-08
   5.19750006E-02  -1.78998434E-08
   5.20499982E-02  -1.72908781E-08
   5.21249995E-02  -1.66579728E-08
   5.22000007E-02  -1.60011933E-08
   5.22749983E-02  -1.53206194E-08
   5.23499995E-02  -1.46163464E-08
   5.24250008E-02  -1.38885010E-08
   5.24999984E-02  -1.31372220E-08
   5.25749996E-02  -1.23626682E-08
   5.26500009E-02  -1.15650254E-08
   5.27249984E-02  -1.07444942E-08
   5.27999997E-02  -9.90130022E-09
   5.28750010E-02  -9.03568953E-09
   5.29499985E-02  -8.14792767E-09
   5.30249998E-02  -7.23829752E-09
   5.31000011E-02  -6.30710595E-09
   5.31749986E-02  -5.35468736E-09
   5.32499999E-02  -4.38139169E-09
   5.33250012E-02  -3.38758643E-09
   5.33999987E-02  -2.37366549E-09
   5.34750000E-02  -1.34004907E-09
   5.35500012E-02  -2.87169927E-10
   5.36249988E-02   7.84517562E-10
   5.37000000E-02   1.87453142E-09
   5.37750013E-02   2.98237413E-09
   5.38499989E-02   4.10752454E-09
   5.39250001E-02   5.24944266E-09
   5.40000014E-02   6.40756603E-09
   5.40749989E-02   7.58131069E-09
   5.41500002E-02   8.77007356E-09
   5.42250015E-02   9.97323024E-09
   5.42999990E-02   1.11901395E-08
   5.43750003E-02   1.24201396E-08
   5.44500016E-02   1.36625466E-08
   5.45249991E-02   1.49166617E-08
   5.46000004E-02   1.61817582E-08
   5.46750017E-02   1.74571024E-08
   5.47499992E-02   1.87419396E-08
   5.48250005E-02   2.00354879E-08
   5.49000017E-02   2.13369535E-08
   5.49749993E-02   2.26455299E-08
   5.50500005E-02   2.39603892E-08
   5.51250018E-02   2.52806878E-08
   5.51999994E-02   2.66055658E-08
   5.52750006E-02   2.79341457E-08
   5.53499982E-02   2.92655411E-08
   5.54249994E-02   3.05988443E-08
   5.55000007E-02   3.19331441E-08
   5.55749983E-02   3.32675043E-08
   5.56499995E-02   3.46009763E-08
   5.57250008E-02   3.59326044E-08
   5.57999983E-02   3.72614153E-08
   5.58749996E-02   3.85864318E-08
   5.59500009E-02   3.99066629E-08
   5.60249984E-02   4.12211136E-08
   5.60999997E-02   4.25287645E-08
   5.61750010E-02   4.38285959E-08
   5.62499985E-02   4.51195845E-08
   5.63249998E-02   4.64006895E-08
   5.64000010E-02   4.76708699E-08
   5.64749986E-02   4.89290741E-08
   5.65499999E-02   5.01742505E-08
   5.66250011E-02   5.14053440E-08
   5.66999987E-02   5.26212851E-08
   5.67749999E-02   5.38210152E-08
   5.68500012E-02   5.50034578E-08
   5.69249988E-02   5.61675435E-08
   5.70000000E-02   5.73122065E-08
   5.70750013E-02   5.84363740E-08
   5.71499988E-02   5.95389693E-08
   5.72250001E-02   6.06189232E-08
   5.73000014E-02   6.16751734E-08
   5.73749989E-02   6.27066470E-08
   5.74500002E-02   6.37122923E-08
   5.75250015E-02   6.46910578E-08
   5.75999990E-02   6.56418777E-08
   5.76750003E-02   6.65637145E-08
   5.77500015E-02   6.74555238E-08
   5.78249991E-02   6.83162895E-08
   5.79000004E-02   6.91449742E-08
   5.79750016E-02   6.99405831E-08
   5.80499992E-02   7.07021002E-08
   5.81250004E-02   7.14285449E-08
   5.82000017E-02   7.21189366E-08
   5.82749993E-02   7.27723020E-08
   5.83500005E-02   7.33877030E-08
   5.84250018E-02   7.39641948E-08
   5.84999993E-02   7.45008535E-08
   5.85750006E-02   7.49967839E-08
   5.86499982E-02   7.54510907E-08
   5.87249994E-02   7.58628929E-08
   5.88000007E-02   7.62313519E-08
   5.88749982E-02   7.65556294E-08
   5.89499995E-02   7.68349224E-08
   5.90250008E-02   7.70684210E-08
   5.90999983E-02   7.72553648E-08
   5.91749996E-02   7.73950077E-08
   5.92500009E-02   7.74866180E-08
   5.93249984E-02   7.75294993E-08
   5.93999997E-02   7.75229836E-08
   5.94750009E-02   7.74664102E-08
   5.95499985E-02   7.73591537E-08
   5.96249998E-02   7.72006388E-08
   5.97000010E-02   7.69902755E-08
   5.97749986E-02   7.67275310E-08
   5.98499998E-02   7.64118866E-08
   5.99250011E-02   7.60428733E-08
   5.99999987E-02   7.56200293E-08
   6.00749999E-02   7.51429354E-08
   6.01500012E-02   7.46112079E-08
   6.02249987E-02   7.40244772E-08
   6.03000000E-02   7.33824379E-08
   6.03750013E-02   7.26847773E-08
   6.04499988E-02   7.19312538E-08
   6.05250001E-02   7.11216472E-08
   6.06000014E-02   7.02557514E-08
   6.06749989E-02   6.93334172E-08
   6.07500002E-02   6.83545309E-08
   6.08250014E-02   6.73190215E-08
   6.08999990E-02   6.62268391E-08
   6.09750003E-02   6.50779697E-08
   6.10500015E-02   6.38724558E-08
   6.11249991E-02   6.26103542E-08
   6.12000003E-02   6.12917788E-08
   6.12750016E-02   5.99168786E-08
   6.13499992E-02   5.84858242E-08
   6.14250004E-02   5.69988430E-08
   6.15000017E-02   5.54561979E-08
   6.15749992E-02   5.38581837E-08
   6.16500005E-02   5.22051344E-08
   6.17250018E-02   5.04974373E-08
   6.17999993E-02   4.87355223E-08
   6.18750006E-02   4.69198369E-08
   6.19499981E-02   4.50508821E-08
   6.20249994E-02   4.31291944E-08
   6.21000007E-02   4.11553636E-08
   6.21749982E-02   3.91300077E-08
   6.22499995E-02   3.70537769E-08
   6.23250008E-02   3.49273783E-08
   6.23999983E-02   3.27515544E-08
   6.24749996E-02   3.05270795E-08
   6.25500008E-02   2.82547781E-08
   6.26249984E-02   2.59355097E-08
   6.27000034E-02   2.35701787E-08
   6.27750009E-02   2.11597175E-08
   6.28499985E-02   1.87050961E-08
   6.29250035E-02   1.62073412E-08
   6.30000010E-02   1.36675071E-08
   6.30749986E-02   1.10866845E-08
   6.31500036E-02   8.46600301E-09
   6.32250011E-02   5.80663473E-09
   6.32999986E-02   3.10978465E-09
   6.33750036E-02   3.76694148E-10
   6.34500012E-02  -2.39135600E-09
   6.35249987E-02  -5.19305754E-09
   6.36000037E-02  -8.02706612E-09
   6.36750013E-02  -1.08919842E-08
   6.37499988E-02  -1.37863987E-08
   6.38249964E-02  -1.67088565E-08
   6.39000013E-02  -1.96578682E-08
   6.39749989E-02  -2.26319248E-08
   6.40499964E-02  -2.56294737E-08
   6.41250014E-02  -2.86489357E-08
   6.41999990E-02  -3.16886961E-08