   0.00000000       0.00000000    
   7.50000036E-05   0.00000000    
   1.50000007E-04   0.00000000    
   2.24999996E-04   0.00000000    
   3.00000014E-04   1.64797256E-23
   3.75000003E-04   1.74933882E-22
   4.49999992E-04   1.00042780E-21
   5.24999981E-04   4.10808831E-21
   6.00000028E-04   1.35914838E-20
   6.75000018E-04   3.85175134E-20
   7.50000007E-04   9.70604877E-20
   8.24999996E-04   2.22943476E-19
   8.99999985E-04   4.75001436E-19
   9.74999974E-04   9.50834291E-19
   1.04999996E-03   1.80567944E-18
   1.12499995E-03   3.27780265E-18
   1.20000006E-03   5.72187217E-18
   1.27500005E-03   9.65195119E-18
   1.35000004E-03   1.57959237E-17
   1.42500002E-03   2.51633272E-17
   1.50000001E-03   3.91287466E-17
   1.57500000E-03   5.95330357E-17
   1.64999999E-03   8.88048599E-17
   1.72499998E-03   1.30105200E-16
   1.79999997E-03   1.87497307E-16
   1.87499996E-03   2.66145322E-16
   1.94999995E-03   3.72544069E-16
   2.02500005E-03   5.14783374E-16
   2.09999993E-03   7.02849993E-16
   2.17500003E-03   9.48969657E-16
   2.24999990E-03   1.26799339E-15
   2.32500001E-03   1.67782997E-15
   2.40000011E-03   2.19992964E-15
   2.47499999E-03   2.85981807E-15
   2.55000009E-03   3.68768965E-15
   2.62499996E-03   4.71905729E-15
   2.70000007E-03   5.99546310E-15
   2.77499994E-03   7.56525529E-15
   2.85000005E-03   9.48442527E-15
   2.92499992E-03   1.18175208E-14
   3.00000003E-03   1.46386233E-14
   3.07499990E-03   1.80323997E-14
   3.15000000E-03   2.20952187E-14
   3.22500011E-03   2.69363491E-14
   3.29999998E-03   3.26792257E-14
   3.37500009E-03   3.94627907E-14
   3.44999996E-03   4.74428981E-14
   3.52500007E-03   5.67937997E-14
   3.59999994E-03   6.77096996E-14
   3.67500004E-03   8.04063576E-14
   3.74999992E-03   9.51227825E-14
   3.82500002E-03   1.12122937E-13
   3.89999989E-03   1.31697564E-13
   3.97500023E-03   1.54166027E-13
   4.05000011E-03   1.79878139E-13
   4.12499998E-03   2.09216176E-13
   4.19999985E-03   2.42596714E-13
   4.27500019E-03   2.80472748E-13
   4.35000006E-03   3.23335461E-13
   4.42499993E-03   3.71716384E-13
   4.49999981E-03   4.26189303E-13
   4.57500014E-03   4.87372187E-13
   4.65000002E-03   5.55929163E-13
   4.72499989E-03   6.32572282E-13
   4.80000023E-03   7.18063684E-13
   4.87500010E-03   8.13216573E-13
   4.94999997E-03   9.18897770E-13
   5.02499985E-03   1.03602879E-12
   5.10000018E-03   1.16558694E-12
   5.17500006E-03   1.30860709E-12
   5.24999993E-03   1.46618286E-12
   5.32499980E-03   1.63946721E-12
   5.40000014E-03   1.82967313E-12
   5.47500001E-03   2.03807414E-12
   5.54999989E-03   2.26600488E-12
   5.62500022E-03   2.51486115E-12
   5.70000010E-03   2.78609883E-12
   5.77499997E-03   3.08123427E-12
   5.84999984E-03   3.40184326E-12
   5.92500018E-03   3.74955839E-12
   6.00000005E-03   4.12606971E-12
   6.07499992E-03   4.53312041E-12
   6.14999980E-03   4.97250591E-12
   6.22500014E-03   5.44607024E-12
   6.30000001E-03   5.95570251E-12
   6.37499988E-03   6.50333433E-12
   6.45000022E-03   7.09093331E-12
   6.52500009E-03   7.72049959E-12
   6.59999996E-03   8.39406149E-12
   6.67499984E-03   9.11366555E-12
   6.75000018E-03   9.88137610E-12
   6.82500005E-03   1.06992601E-11
   6.89999992E-03   1.15693869E-11
   6.97499979E-03   1.24938159E-11
   7.05000013E-03   1.34745895E-11
   7.12500000E-03   1.45137184E-11
   7.19999988E-03   1.56131757E-11
   7.27500021E-03   1.67748836E-11
   7.35000009E-03   1.80007086E-11
   7.42499996E-03   1.92924392E-11
   7.49999983E-03   2.06517754E-11
   7.57500017E-03   2.20803185E-11
   7.65000004E-03   2.35795480E-11
   7.72499992E-03   2.51508224E-11
   7.79999979E-03   2.67953472E-11
   7.87500013E-03   2.85141667E-11
   7.95000046E-03   3.03081414E-11
   8.02499987E-03   3.21779374E-11
   8.10000021E-03   3.41239988E-11
   8.17499962E-03   3.61465337E-11
   8.24999996E-03   3.82454970E-11
   8.32500029E-03   4.04205662E-11
   8.39999970E-03   4.26711236E-11
   8.47500004E-03   4.49962290E-11
   8.55000038E-03   4.73946091E-11
   8.62499978E-03   4.98646194E-11
   8.70000012E-03   5.24042407E-11
   8.77500046E-03   5.50110409E-11
   8.84999987E-03   5.76821542E-11
   8.92500021E-03   6.04142777E-11
   8.99999961E-03   6.32036160E-11
   9.07499995E-03   6.60458840E-11
   9.15000029E-03   6.89362595E-11
   9.22499970E-03   7.18693924E-11
   9.30000003E-03   7.48393569E-11
   9.37500037E-03   7.78396375E-11
   9.44999978E-03   8.08631148E-11
   9.52500012E-03   8.39020034E-11
   9.60000046E-03   8.69478933E-11
   9.67499986E-03   8.99916877E-11
   9.75000020E-03   9.30235750E-11
   9.82499961E-03   9.60330565E-11
   9.89999995E-03   9.90088775E-11
   9.97500028E-03   1.01939041E-10
   1.00499997E-02   1.04810778E-10
   1.01250000E-02   1.07610545E-10
   1.02000004E-02   1.10323993E-10
   1.02749998E-02   1.12935966E-10
   1.03500001E-02   1.15430498E-10
   1.04250005E-02   1.17790791E-10
   1.04999999E-02   1.19999233E-10
   1.05750002E-02   1.22037325E-10
   1.06499996E-02   1.23885777E-10
   1.07249999E-02   1.25524466E-10
   1.08000003E-02   1.26932395E-10
   1.08749997E-02   1.28087763E-10
   1.09500000E-02   1.28967947E-10
   1.10250004E-02   1.29549482E-10
   1.10999998E-02   1.29808150E-10
   1.11750001E-02   1.29718916E-10
   1.12500004E-02   1.29255995E-10
   1.13249999E-02   1.28392838E-10
   1.14000002E-02   1.27102232E-10
   1.14749996E-02   1.25356239E-10
   1.15499999E-02   1.23126301E-10
   1.16250003E-02   1.20383231E-10
   1.16999997E-02   1.17097262E-10
   1.17750000E-02   1.13238155E-10
   1.18500004E-02   1.08775142E-10
   1.19249998E-02   1.03677060E-10
   1.20000001E-02   9.79123657E-11
   1.20750004E-02   9.14492509E-11
   1.21499998E-02   8.42556511E-11
   1.22250002E-02   7.62993557E-11
   1.22999996E-02   6.75480505E-11
   1.23749999E-02   5.79694383E-11
   1.24500003E-02   4.75312983E-11
   1.25249997E-02   3.62015834E-11
   1.26000000E-02   2.39485220E-11
   1.26750004E-02   1.07407052E-11
   1.27499998E-02  -3.45279643E-12
   1.28250001E-02  -1.86623373E-11
   1.29000004E-02  -3.49175688E-11
   1.29749998E-02  -5.22473176E-11
   1.30500002E-02  -7.06794831E-11
   1.31249996E-02  -9.02408773E-11
   1.31999999E-02  -1.10957139E-10
   1.32750003E-02  -1.32852535E-10
   1.33499997E-02  -1.55949878E-10
   1.34250000E-02  -1.80270340E-10
   1.35000004E-02  -2.05833323E-10
   1.35749998E-02  -2.32656297E-10
   1.36500001E-02  -2.60754612E-10
   1.37250004E-02  -2.90141383E-10
   1.37999998E-02  -3.20827365E-10
   1.38750002E-02  -3.52820634E-10
   1.39499996E-02  -3.86126631E-10
   1.40249999E-02  -4.20747742E-10
   1.41000003E-02  -4.56683275E-10
   1.41749997E-02  -4.93929231E-10
   1.42500000E-02  -5.32478284E-10
   1.43250003E-02  -5.72319359E-10
   1.43999998E-02  -6.13437579E-10
   1.44750001E-02  -6.55813903E-10
   1.45500004E-02  -6.99425184E-10
   1.46249998E-02  -7.44244000E-10
   1.47000002E-02  -7.90238153E-10
   1.47749996E-02  -8.37370895E-10
   1.48499999E-02  -8.85600260E-10
   1.49250003E-02  -9.34879396E-10
   1.49999997E-02  -9.85155957E-10
   1.50750000E-02  -1.03637221E-09
   1.51500003E-02  -1.08846476E-09
   1.52249997E-02  -1.14136434E-09
   1.53000001E-02  -1.19499544E-09
   1.53750004E-02  -1.24927690E-09
   1.54499998E-02  -1.30412070E-09
   1.55250002E-02  -1.35943279E-09
   1.55999996E-02  -1.41511203E-09
   1.56750008E-02  -1.47105073E-09
   1.57500003E-02  -1.52713431E-09
   1.58249997E-02  -1.58324087E-09
   1.59000009E-02  -1.63924174E-09
   1.59750003E-02  -1.69500081E-09
   1.60499997E-02  -1.75037451E-09
   1.61249992E-02  -1.80521165E-09
   1.62000004E-02  -1.85935400E-09
   1.62749998E-02  -1.91263516E-09
   1.63499992E-02  -1.96488137E-09
   1.64250005E-02  -2.01591122E-09
   1.64999999E-02  -2.06553508E-09
   1.65749993E-02  -2.11355622E-09
   1.66500006E-02  -2.15976947E-09
   1.67250000E-02  -2.20396212E-09
   1.67999994E-02  -2.24591434E-09
   1.68750007E-02  -2.28539787E-09
   1.69500001E-02  -2.32217690E-09
   1.70249995E-02  -2.35600828E-09
   1.71000008E-02  -2.38664133E-09
   1.71750002E-02  -2.41381870E-09
   1.72499996E-02  -2.43727460E-09
   1.73250008E-02  -2.45673704E-09
   1.74000002E-02  -2.47192711E-09
   1.74749997E-02  -2.48255883E-09
   1.75500009E-02  -2.48834042E-09
   1.76250003E-02  -2.48897347E-09
   1.76999997E-02  -2.48415355E-09
   1.77749991E-02  -2.47357113E-09
   1.78500004E-02  -2.45691090E-09
   1.79249998E-02  -2.43385267E-09
   1.79999992E-02  -2.40407139E-09
   1.80750005E-02  -2.36723818E-09
   1.81499999E-02  -2.32301978E-09
   1.82249993E-02  -2.27107999E-09
   1.83000006E-02  -2.21107954E-09
   1.83750000E-02  -2.14267626E-09
   1.84499994E-02  -2.06552642E-09
   1.85250007E-02  -1.97928474E-09
   1.86000001E-02  -1.88360461E-09
   1.86749995E-02  -1.77813997E-09
   1.87500007E-02  -1.66254444E-09
   1.88250002E-02  -1.53647273E-09
   1.88999996E-02  -1.39958090E-09
   1.89750008E-02  -1.25152755E-09
   1.90500002E-02  -1.09197418E-09
   1.91249996E-02  -9.20585996E-10
   1.92000009E-02  -7.37032657E-10
   1.92750003E-02  -5.40988920E-10
   1.93499997E-02  -3.32135486E-10
   1.94249991E-02  -1.10160006E-10
   1.95000004E-02   1.25242067E-10
   1.95749998E-02   3.74366704E-10
   1.96499992E-02   6.37500386E-10
   1.97250005E-02   9.14919585E-10
   1.97999999E-02   1.20688948E-09
   1.98749993E-02   1.51366286E-09
   1.99500006E-02   1.83547921E-09
   2.00250000E-02   2.17256413E-09
   2.00999994E-02   2.52512788E-09
   2.01750007E-02   2.89336488E-09
   2.02500001E-02   3.27745275E-09
   2.03249995E-02   3.67754982E-09
   2.04000007E-02   4.09379597E-09
   2.04750001E-02   4.52631088E-09
   2.05499995E-02   4.97519315E-09
   2.06250008E-02   5.44051781E-09
   2.07000002E-02   5.92233862E-09
   2.07749996E-02   6.42068310E-09
   2.08500009E-02   6.93555302E-09
   2.09250003E-02   7.46692574E-09
   2.09999997E-02   8.01474709E-09
   2.10749991E-02   8.57893845E-09
   2.11500004E-02   9.15938791E-09
   2.12249998E-02   9.75595693E-09
   2.12999992E-02   1.03684705E-08
   2.13750005E-02   1.09967235E-08
   2.14499999E-02   1.16404770E-08
   2.15249993E-02   1.22994566E-08
   2.16000006E-02   1.29733522E-08
   2.16750000E-02   1.36618175E-08
   2.17499994E-02   1.43644661E-08
   2.18250006E-02   1.50808752E-08
   2.19000001E-02   1.58105831E-08
   2.19749995E-02   1.65530878E-08
   2.20500007E-02   1.73078458E-08
   2.21250001E-02   1.80742692E-08
   2.21999995E-02   1.88517326E-08
   2.22750008E-02   1.96395629E-08
   2.23500002E-02   2.04370458E-08
   2.24249996E-02   2.12434230E-08
   2.25000009E-02   2.20578880E-08
   2.25750003E-02   2.28795916E-08
   2.26499997E-02   2.37076385E-08
   2.27249991E-02   2.45410838E-08
   2.28000004E-02   2.53789434E-08
   2.28749998E-02   2.62201763E-08
   2.29499992E-02   2.70637006E-08
   2.30250005E-02   2.79083885E-08
   2.30999999E-02   2.87530604E-08
   2.31749993E-02   2.95964906E-08
   2.32500006E-02   3.04374055E-08
   2.33250000E-02   3.12744888E-08
   2.33999994E-02   3.21063673E-08
   2.34750006E-02   3.29316308E-08
   2.35500000E-02   3.37488224E-08
   2.36249994E-02   3.45564359E-08
   2.37000007E-02   3.53529117E-08
   2.37750001E-02   3.61366617E-08
   2.38499995E-02   3.69060409E-08
   2.39250008E-02   3.76593654E-08
   2.40000002E-02   3.83949086E-08
   2.40749996E-02   3.91109083E-08
   2.41500009E-02   3.98055491E-08
   2.42250003E-02   4.04769871E-08
   2.42999997E-02   4.11233358E-08
   2.43749991E-02   4.17426698E-08
   2.44500004E-02   4.23330384E-08
   2.45249998E-02   4.28924416E-08
   2.45999992E-02   4.34188614E-08
   2.46750005E-02   4.39102443E-08
   2.47499999E-02   4.43645014E-08
   2.48249993E-02   4.47795259E-08
   2.49000005E-02   4.51531896E-08
   2.49749999E-02   4.54833256E-08
   2.50499994E-02   4.57677700E-08
   2.51250006E-02   4.60043204E-08
   2.52000000E-02   4.61907703E-08
   2.52749994E-02   4.63248959E-08
   2.53500007E-02   4.64044625E-08
   2.54250001E-02   4.64272283E-08
   2.54999995E-02   4.63909480E-08
   2.55750008E-02   4.62933762E-08
   2.56500002E-02   4.61322642E-08
   2.57249996E-02   4.59053702E-08
   2.58000009E-02   4.56104630E-08
   2.58750003E-02   4.52453115E-08
   2.59499997E-02   4.48077024E-08
   2.60249991E-02   4.42954473E-08
   2.61000004E-02   4.37063683E-08
   2.61749998E-02   4.30383231E-08
   2.62499992E-02   4.22891873E-08
   2.63250005E-02   4.14568717E-08
   2.63999999E-02   4.05393230E-08
   2.64749993E-02   3.95345268E-08
   2.65500005E-02   3.84405148E-08
   2.66249999E-02   3.72553544E-08
   2.66999993E-02   3.59771768E-08
   2.67750006E-02   3.46041666E-08
   2.68500000E-02   3.31345618E-08
   2.69249994E-02   3.15666711E-08
   2.70000007E-02   2.98988603E-08
   2.70750001E-02   2.81295751E-08
   2.71499995E-02   2.62573376E-08
   2.72250008E-02   2.42807445E-08
   2.73000002E-02   2.21984813E-08
   2.73749996E-02   2.00093204E-08
   2.74500009E-02   1.77121233E-08
   2.75250003E-02   1.53058544E-08
   2.75999997E-02   1.27895756E-08
   2.76749991E-02   1.01624558E-08
   2.77500004E-02   7.42377138E-09
   2.78249998E-02   4.57291494E-09
   2.78999992E-02   1.60939706E-09
   2.79750004E-02  -1.46715351E-09
   2.80499998E-02  -4.65697747E-09
   2.81249993E-02  -7.96018984E-09
   2.82000005E-02  -1.13767733E-08
   2.82749999E-02  -1.49065684E-08
   2.83499993E-02  -1.85492759E-08
   2.84250006E-02  -2.23044498E-08
   2.85000000E-02  -2.61715023E-08
   2.85749994E-02  -3.01496890E-08
   2.86500007E-02  -3.42381092E-08
   2.87250001E-02  -3.84357079E-08
   2.87999995E-02  -4.27412630E-08
   2.88750008E-02  -4.71533959E-08
   2.89500002E-02  -5.16705470E-08
   2.90249996E-02  -5.62910074E-08
   2.91000009E-02  -6.10128765E-08
   2.91750003E-02  -6.58340866E-08
   2.92499997E-02  -7.07523924E-08
   2.93249991E-02  -7.57653709E-08
   2.94000003E-02  -8.08704144E-08
   2.94749998E-02  -8.60647376E-08
   2.95499992E-02  -9.13453491E-08
   2.96250004E-02  -9.67091083E-08
   2.96999998E-02  -1.02152654E-07
   2.97749992E-02  -1.07672463E-07
   2.98500005E-02  -1.13264811E-07
   2.99249999E-02  -1.18925776E-07
   2.99999993E-02  -1.24651265E-07
   3.00750006E-02  -1.30436973E-07
   3.01500000E-02  -1.36278430E-07
   3.02249994E-02  -1.42170975E-07
   3.03000007E-02  -1.48109734E-07
   3.03750001E-02  -1.54089676E-07
   3.04499995E-02  -1.60105543E-07
   3.05250008E-02  -1.66151921E-07
   3.06000002E-02  -1.72223224E-07
   3.06749996E-02  -1.78313684E-07
   3.07500008E-02  -1.84417317E-07
   3.08250003E-02  -1.90527985E-07
   3.08999997E-02  -1.96639377E-07
   3.09749991E-02  -2.02745042E-07
   3.10500003E-02  -2.08838301E-07
   3.11249997E-02  -2.14912347E-07
   3.11999992E-02  -2.20960217E-07
   3.12750004E-02  -2.26974748E-07
   3.13500017E-02  -2.32948679E-07
   3.14249992E-02  -2.38874577E-07
   3.15000005E-02  -2.44744882E-07
   3.15750018E-02  -2.50551892E-07
   3.16499993E-02  -2.56287763E-07
   3.17250006E-02  -2.61944535E-07
   3.18000019E-02  -2.67514139E-07
   3.18749994E-02  -2.72988359E-07
   3.19500007E-02  -2.78358897E-07
   3.20249982E-02  -2.83617311E-07
   3.20999995E-02  -2.88755160E-07
   3.21750008E-02  -2.93763833E-07
   3.22499983E-02  -2.98634689E-07
   3.23249996E-02  -3.03358973E-07
   3.24000008E-02  -3.07927934E-07
   3.24749984E-02  -3.12332674E-07
   3.25499997E-02  -3.16564382E-07
   3.26250009E-02  -3.20614078E-07
   3.26999985E-02  -3.24472808E-07
   3.27749997E-02  -3.28131620E-07
   3.28500010E-02  -3.31581532E-07
   3.29249986E-02  -3.34813564E-07
   3.29999998E-02  -3.37818761E-07
   3.30750011E-02  -3.40588173E-07
   3.31499986E-02  -3.43112873E-07
   3.32249999E-02  -3.45383995E-07
   3.33000012E-02  -3.47392728E-07
   3.33749987E-02  -3.49130289E-07
   3.34500000E-02  -3.50587982E-07
   3.35250013E-02  -3.51757222E-07
   3.35999988E-02  -3.52629513E-07
   3.36750001E-02  -3.53196441E-07
   3.37500013E-02  -3.53449764E-07
   3.38249989E-02  -3.53381239E-07
   3.39000002E-02  -3.52982880E-07
   3.39750014E-02  -3.52246786E-07
   3.40499990E-02  -3.51165284E-07
   3.41250002E-02  -3.49730811E-07
   3.42000015E-02  -3.47936037E-07
   3.42749991E-02  -3.45773799E-07
   3.43500003E-02  -3.43237133E-07
   3.44250016E-02  -3.40319303E-07
   3.44999991E-02  -3.37013802E-07
   3.45750004E-02  -3.33314347E-07
   3.46500017E-02  -3.29214913E-07
   3.47249992E-02  -3.24709760E-07
   3.48000005E-02  -3.19793401E-07
   3.48750018E-02  -3.14460635E-07
   3.49499993E-02  -3.08706547E-07
   3.50250006E-02  -3.02526530E-07
   3.51000018E-02  -2.95916266E-07
   3.51749994E-02  -2.88871803E-07
   3.52500007E-02  -2.81389475E-07
   3.53249982E-02  -2.73465986E-07
   3.53999995E-02  -2.65098407E-07
   3.54750007E-02  -2.56284153E-07
   3.55499983E-02  -2.47021035E-07
   3.56249996E-02  -2.37307191E-07
   3.57000008E-02  -2.27141157E-07
   3.57749984E-02  -2.16521883E-07
   3.58499996E-02  -2.05448728E-07
   3.59250009E-02  -1.93921423E-07
   3.59999985E-02  -1.81940152E-07
   3.60749997E-02  -1.69505512E-07
   3.61500010E-02  -1.56618526E-07
   3.62249985E-02  -1.43280616E-07
   3.62999998E-02  -1.29493714E-07
   3.63750011E-02  -1.15260150E-07
   3.64499986E-02  -1.00582710E-07
   3.65249999E-02  -8.54646487E-08
   3.66000012E-02  -6.99096674E-08
   3.66749987E-02  -5.39219229E-08
   3.67500000E-02  -3.75060445E-08
   3.68250012E-02  -2.06671249E-08
   3.68999988E-02  -3.41074324E-09
   3.69750001E-02   1.42570737E-08
   3.70500013E-02   3.23298295E-08
   3.71249989E-02   5.08005371E-08
   3.72000001E-02   6.96617448E-08
   3.72750014E-02   8.89055300E-08
   3.73499990E-02   1.08523523E-07
   3.74250002E-02   1.28506827E-07
   3.75000015E-02   1.48846141E-07
   3.75749990E-02   1.69531674E-07
   3.76500003E-02   1.90553166E-07
   3.77250016E-02   2.11899888E-07
   3.77999991E-02   2.33560655E-07
   3.78750004E-02   2.55523872E-07
   3.79500017E-02   2.77777474E-07
   3.80249992E-02   3.00308926E-07
   3.81000005E-02   3.23105297E-07
   3.81750017E-02   3.46153229E-07
   3.82499993E-02   3.69438936E-07
   3.83250006E-02   3.92948152E-07
   3.84000018E-02   4.16666296E-07
   3.84749994E-02   4.40578390E-07
   3.85500006E-02   4.64669000E-07
   3.86249982E-02   4.88922353E-07
   3.86999995E-02   5.13322334E-07
   3.87750007E-02   5.37852372E-07
   3.88499983E-02   5.62495700E-07
   3.89249995E-02   5.87234979E-07
   3.90000008E-02   6.12052816E-07
   3.90749983E-02   6.36931304E-07
   3.91499996E-02   6.61852312E-07
   3.92250009E-02   6.86797421E-07
   3.92999984E-02   7.11747873E-07
   3.93749997E-02   7.36684683E-07
   3.94500010E-02   7.61588637E-07
   3.95249985E-02   7.86440296E-07
   3.95999998E-02   8.11220048E-07
   3.96750011E-02   8.35907827E-07
   3.97499986E-02   8.60483624E-07
   3.98249999E-02   8.84927147E-07
   3.99000011E-02   9.09218045E-07
   3.99749987E-02   9.33335571E-07
   4.00500000E-02   9.57259203E-07
   4.01250012E-02   9.80968025E-07
   4.01999988E-02   1.00444095E-06
   4.02750000E-02   1.02765716E-06
   4.03500013E-02   1.05059542E-06
   4.04249988E-02   1.07323478E-06
   4.05000001E-02   1.09555378E-06
   4.05750014E-02   1.11753150E-06
   4.06499989E-02   1.13914666E-06
   4.07250002E-02   1.16037791E-06
   4.08000015E-02   1.18120431E-06
   4.08749990E-02   1.20160462E-06
   4.09500003E-02   1.22155768E-06
   4.10250016E-02   1.24104270E-06
   4.10999991E-02   1.26003874E-06
   4.11750004E-02   1.27852502E-06
   4.12500016E-02   1.29648083E-06
   4.13249992E-02   1.31388572E-06
   4.14000005E-02   1.33071933E-06
   4.14750017E-02   1.34696143E-06
   4.15499993E-02   1.36259212E-06
   4.16250005E-02   1.37759162E-06
   4.17000018E-02   1.39194026E-06
   4.17749994E-02   1.40561872E-06
   4.18500006E-02   1.41860789E-06
   4.19249982E-02   1.43088914E-06
   4.19999994E-02   1.44244359E-06
   4.20750007E-02   1.45325316E-06
   4.21499982E-02   1.46330001E-06
   4.22249995E-02   1.47256617E-06
   4.23000008E-02   1.48103459E-06
   4.23749983E-02   1.48868787E-06
   4.24499996E-02   1.49550976E-06
   4.25250009E-02   1.50148378E-06
   4.25999984E-02   1.50659412E-06
   4.26749997E-02   1.51082497E-06
   4.27500010E-02   1.51416134E-06
   4.28249985E-02   1.51658844E-06
   4.28999998E-02   1.51809184E-06
   4.29750010E-02   1.51865765E-06
   4.30499986E-02   1.51827237E-06
   4.31249999E-02   1.51692268E-06
   4.32000011E-02   1.51459619E-06
   4.32749987E-02   1.51128052E-06
   4.33499999E-02   1.50696383E-06
   4.34250012E-02   1.50163487E-06
   4.34999987E-02   1.49528273E-06
   4.35750000E-02   1.48789684E-06
   4.36500013E-02   1.47946753E-06
   4.37249988E-02   1.46998525E-06
   4.38000001E-02   1.45944080E-06
   4.38750014E-02   1.44782587E-06
   4.39499989E-02   1.43513216E-06
   4.40250002E-02   1.42135218E-06
   4.41000015E-02   1.40647865E-06
   4.41749990E-02   1.39050530E-06
   4.42500003E-02   1.37342568E-06
   4.43250015E-02   1.35523408E-06
   4.43999991E-02   1.33592539E-06
   4.44750004E-02   1.31549484E-06
   4.45500016E-02   1.29393811E-06
   4.46249992E-02   1.27125145E-06
   4.47000004E-02   1.24743156E-06
   4.47750017E-02   1.22247548E-06
   4.48499992E-02   1.19638082E-06
   4.49250005E-02   1.16914578E-06
   4.50000018E-02   1.14076875E-06
   4.50749993E-02   1.11124871E-06
   4.51500006E-02   1.08058509E-06
   4.52249981E-02   1.04877790E-06
   4.52999994E-02   1.01582737E-06
   4.53750007E-02   9.81734274E-07
   4.54499982E-02   9.46499540E-07
   4.55249995E-02   9.10124982E-07
   4.56000008E-02   8.72612759E-07
   4.56749983E-02   8.33965146E-07
   4.57499996E-02   7.94185155E-07
   4.58250009E-02   7.53275913E-07
   4.58999984E-02   7.11241171E-07
   4.59749997E-02   6.68085022E-07
   4.60500009E-02   6.23811957E-07
   4.61249985E-02   5.78426921E-07
   4.61999997E-02   5.31935086E-07
   4.62750010E-02   4.84342195E-07
   4.63499986E-02   4.35654243E-07
   4.64249998E-02   3.85877740E-07
   4.65000011E-02   3.35019394E-07
   4.65749986E-02   2.83086450E-07
   4.66499999E-02   2.30086471E-07
   4.67250012E-02   1.76027370E-07
   4.67999987E-02   1.20917434E-07
   4.68750000E-02   6.47653380E-08
   4.69500013E-02   7.58012764E-09
   4.70249988E-02  -5.06287776E-08
   4.71000001E-02  -1.09851605E-07
   4.71750014E-02  -1.70078224E-07
   4.72499989E-02  -2.31298088E-07
   4.73250002E-02  -2.93500335E-07
   4.74000014E-02  -3.56673695E-07
   4.74749990E-02  -4.20806458E-07
   4.75500003E-02  -4.85886574E-07
   4.76250015E-02  -5.51901564E-07
   4.76999991E-02  -6.18838669E-07
   4.77750003E-02  -6.86684587E-07
   4.78500016E-02  -7.55425617E-07
   4.79249991E-02  -8.25047721E-07
   4.80000004E-02  -8.95536402E-07
   4.80750017E-02  -9.66876655E-07
   4.81499992E-02  -1.03905313E-06
   4.82250005E-02  -1.11204997E-06
   4.83000018E-02  -1.18585092E-06
   4.83749993E-02  -1.26043903E-06
   4.84500006E-02  -1.33579692E-06
   4.85250019E-02  -1.41190696E-06
   4.85999994E-02  -1.48875063E-06
   4.86750007E-02  -1.56630915E-06
   4.87499982E-02  -1.64456276E-06
   4.88249995E-02  -1.72349178E-06
   4.89000008E-02  -1.80307575E-06
   4.89749983E-02  -1.88329284E-06
   4.90499996E-02  -1.96412157E-06
   4.91250008E-02  -2.04553908E-06
   4.91999984E-02  -2.12752229E-06
   4.92749996E-02  -2.21004711E-06
   4.93500009E-02  -2.29308898E-06
   4.94249985E-02  -2.37662243E-06
   4.94999997E-02  -2.46062177E-06
   4.95750010E-02  -2.54505949E-06
   4.96499985E-02  -2.62990807E-06
   4.97249998E-02  -2.71513886E-06
   4.98000011E-02  -2.80072231E-06
   4.98749986E-02  -2.88662818E-06
   4.99499999E-02  -2.97282509E-06
   5.00250012E-02  -3.05928074E-06
   5.00999987E-02  -3.14596150E-06
   5.01750000E-02  -3.23283393E-06
   5.02500013E-02  -3.31986189E-06
   5.03249988E-02  -3.40700967E-06
   5.04000001E-02  -3.49423954E-06
   5.04750013E-02  -3.58151328E-06
   5.05499989E-02  -3.66879135E-06
   5.06250001E-02  -3.75603213E-06
   5.07000014E-02  -3.84319446E-06
   5.07749990E-02  -3.93023493E-06
   5.08500002E-02  -4.01710849E-06
   5.09250015E-02  -4.10376970E-06
   5.09999990E-02  -4.19017124E-06
   5.10750003E-02  -4.27626537E-06
   5.11500016E-02  -4.36200162E-06
   5.12249991E-02  -4.44732950E-06
   5.13000004E-02  -4.53219627E-06
   5.13750017E-02  -4.61654781E-06
   5.14499992E-02  -4.70032865E-06
   5.15250005E-02  -4.78348238E-06
   5.16000018E-02  -4.86595081E-06
   5.16749993E-02  -4.94767346E-06
   5.17500006E-02  -5.02858893E-06
   5.18250018E-02  -5.10863538E-06
   5.18999994E-02  -5.18774868E-06
   5.19750006E-02  -5.26586155E-06
   5.20499982E-02  -5.34290712E-06
   5.21249995E-02  -5.41881673E-06
   5.22000007E-02  -5.49351944E-06
   5.22749983E-02  -5.56694295E-06
   5.23499995E-02  -5.63901358E-06
   5.24250008E-02  -5.70965631E-06
   5.24999984E-02  -5.77879428E-06
   5.25749996E-02  -5.84634881E-06
   5.26500009E-02  -5.91223989E-06
   5.27249984E-02  -5.97638655E-06
   5.27999997E-02  -6.03870467E-06
   5.28750010E-02  -6.09911012E-06
   5.29499985E-02  -6.15751696E-06
   5.30249998E-02  -6.21383742E-06
   5.31000011E-02  -6.26798237E-06
   5.31749986E-02  -6.31986131E-06
   5.32499999E-02  -6.36938239E-06
   5.33250012E-02  -6.41645238E-06
   5.33999987E-02  -6.46097578E-06
   5.34750000E-02  -6.50285801E-06
   5.35500012E-02  -6.54200085E-06
   5.36249988E-02  -6.57830606E-06
   5.37000000E-02  -6.61167542E-06
   5.37750013E-02  -6.64200707E-06
   5.38499989E-02  -6.66919959E-06
   5.39250001E-02  -6.69315068E-06
   5.40000014E-02  -6.71375483E-06
   5.40749989E-02  -6.73090926E-06
   5.41500002E-02  -6.74450848E-06
   5.42250015E-02  -6.75444608E-06
   5.42999990E-02  -6.76061472E-06
   5.43750003E-02  -6.76290847E-06
   5.44500016E-02  -6.76121954E-06
   5.45249991E-02  -6.75543924E-06
   5.46000004E-02  -6.74545981E-06
   5.46750017E-02  -6.73117211E-06
   5.47499992E-02  -6.71246698E-06
   5.48250005E-02  -6.68923667E-06
   5.49000017E-02  -6.66137248E-06
   5.49749993E-02  -6.62876664E-06
   5.50500005E-02  -6.59130956E-06
   5.51250018E-02  -6.54889436E-06
   5.51999994E-02  -6.50141374E-06
   5.52750006E-02  -6.44876218E-06
   5.53499982E-02  -6.39083419E-06
   5.54249994E-02  -6.32752472E-06
   5.55000007E-02  -6.25873008E-06
   5.55749983E-02  -6.18434888E-06
   5.56499995E-02  -6.10427924E-06
   5.57250008E-02  -6.01842248E-06
   5.57999983E-02  -5.92668175E-06
   5.58749996E-02  -5.82895973E-06
   5.59500009E-02  -5.72516365E-06
   5.60249984E-02  -5.61520119E-06
   5.60999997E-02  -5.49898323E-06
   5.61750010E-02  -5.37642245E-06
   5.62499985E-02  -5.24743518E-06
   5.63249998E-02  -5.11193912E-06
   5.64000010E-02  -4.96985558E-06
   5.64749986E-02  -4.82110909E-06
   5.65499999E-02  -4.66562733E-06
   5.66250011E-02  -4.50334119E-06
   5.66999987E-02  -4.33418518E-06
   5.67749999E-02  -4.15809836E-06
   5.68500012E-02  -3.97502254E-06
   5.69249988E-02  -3.78490472E-06
   5.70000000E-02  -3.58769580E-06
   5.70750013E-02  -3.38335121E-06
   5.71499988E-02  -3.17183094E-06
   5.72250001E-02  -2.95309951E-06
   5.73000014E-02  -2.72712737E-06
   5.73749989E-02  -2.49388927E-06
   5.74500002E-02  -2.25336589E-06
   5.75250015E-02  -2.00554291E-06
   5.75999990E-02  -1.75041225E-06
   5.76750003E-02  -1.48797153E-06
   5.77500015E-02  -1.21822427E-06
   5.78249991E-02  -9.41180360E-07
   5.79000004E-02  -6.56855946E-07
   5.79750016E-02  -3.65273763E-07
   5.80499992E-02  -6.64633006E-08
   5.81250004E-02   2.39538934E-07
   5.82000017E-02   5.52689585E-07
   5.82749993E-02   8.72938472E-07
   5.83500005E-02   1.20022742E-06
   5.84250018E-02   1.53449139E-06
   5.84999993E-02   1.87565752E-06
   5.85750006E-02   2.22364542E-06
   5.86499982E-02   2.57836632E-06
   5.87249994E-02   2.93972403E-06
   5.88000007E-02   3.30761395E-06
   5.88749982E-02   3.68192354E-06
   5.89499995E-02   4.06253093E-06
   5.90250008E-02   4.44930765E-06
   5.90999983E-02   4.84211523E-06
   5.91749996E-02   5.24080770E-06
   5.92500009E-02   5.64522907E-06
   5.93249984E-02   6.05521655E-06
   5.93999997E-02   6.47059596E-06
   5.94750009E-02   6.89118633E-06
   5.95499985E-02   7.31679620E-06
   5.96249998E-02   7.74722594E-06
   5.97000010E-02   8.18226818E-06
   5.97749986E-02   8.62170418E-06
   5.98499998E-02   9.06530840E-06
   5.99250011E-02   9.51284346E-06
   5.99999987E-02   9.96406561E-06
   6.00749999E-02   1.04187202E-05
   6.01500012E-02   1.08765453E-05
   6.02249987E-02   1.13372689E-05
   6.03000000E-02   1.18006092E-05
   6.03750013E-02   1.22662750E-05
   6.04499988E-02   1.27339717E-05
   6.05250001E-02   1.32033874E-05
   6.06000014E-02   1.36742074E-05
   6.06749989E-02   1.41461069E-05
   6.07500002E-02   1.46187522E-05
   6.08250014E-02   1.50918031E-05
   6.08999990E-02   1.55649086E-05
   6.09750003E-02   1.60377076E-05
   6.10500015E-02   1.65098372E-05
   6.11249991E-02   1.69809246E-05
   6.12000003E-02   1.74505840E-05
   6.12750016E-02   1.79184281E-05
   6.13499992E-02   1.83840602E-05
   6.14250004E-02   1.88470749E-05
   6.15000017E-02   1.93070646E-05
   6.15749992E-02   1.97636109E-05
   6.16500005E-02   2.02162901E-05
   6.17250018E-02   2.06646710E-05
   6.17999993E-02   2.11083170E-05
   6.18750006E-02   2.15467880E-05
   6.19499981E-02   2.19796366E-05
   6.20249994E-02   2.24064115E-05
   6.21000007E-02   2.28266563E-05
   6.21749982E-02   2.32399088E-05
   6.22499995E-02   2.36457017E-05
   6.23250008E-02   2.40435675E-05
   6.23999983E-02   2.44330349E-05
   6.24749996E-02   2.48136257E-05
   6.25500008E-02   2.51848614E-05
   6.26249984E-02   2.55462601E-05
   6.27000034E-02   2.58973432E-05
   6.27750009E-02   2.62376234E-05
   6.28499985E-02   2.65666131E-05
   6.29250035E-02   2.68838248E-05
   6.30000010E-02   2.71887766E-05
   6.30749986E-02   2.74809790E-05
   6.31500036E-02   2.77599447E-05
   6.32250011E-02   2.80251916E-05
   6.32999986E-02   2.82762376E-05
   6.33750036E-02   2.85125916E-05
   6.34500012E-02   2.87337807E-05
   6.35249987E-02   2.89393283E-05
   6.36000037E-02   2.91287615E-05
   6.36750013E-02   2.93016092E-05
   6.37499988E-02   2.94574038E-05
   6.38249964E-02   2.95956888E-05
   6.39000013E-02   2.97160041E-05
   6.39749989E-02   2.98179020E-05
   6.40499964E-02   2.99009407E-05
   6.41250014E-02   2.99646836E-05
   6.41999990E-02   3.00087013E-05