   0.00000000       0.00000000    
   7.50000036E-05   0.00000000    
   1.50000007E-04   0.00000000    
   2.24999996E-04   0.00000000    
   3.00000014E-04   2.03482032E-23
   3.75000003E-04   2.04770860E-22
   4.49999992E-04   1.11395490E-21
   5.24999981E-04   4.36774870E-21
   6.00000028E-04   1.38490132E-20
   6.75000018E-04   3.77418538E-20
   7.50000007E-04   9.17412059E-20
   8.24999996E-04   2.03839624E-19
   8.99999985E-04   4.21169788E-19
   9.74999974E-04   8.19459916E-19
   1.04999996E-03   1.51573909E-18
   1.12499995E-03   2.68501359E-18
   1.20000006E-03   4.58173315E-18
   1.27500005E-03   7.56694567E-18
   1.35000004E-03   1.21421470E-17
   1.42500002E-03   1.89909320E-17
   1.50000001E-03   2.90296521E-17
   1.57500000E-03   4.34683908E-17
   1.64999999E-03   6.38836683E-17
   1.72499998E-03   9.23044559E-17
   1.79999997E-03   1.31313162E-16
   1.87499996E-03   1.84163227E-16
   1.94999995E-03   2.54915413E-16
   2.02500005E-03   3.48594821E-16
   2.09999993E-03   4.71370606E-16
   2.17500003E-03   6.30760607E-16
   2.24999990E-03   8.35863441E-16
   2.32500001E-03   1.09762140E-15
   2.40000011E-03   1.42911420E-15
   2.47499999E-03   1.84589062E-15
   2.55000009E-03   2.36633710E-15
   2.62499996E-03   3.01208685E-15
   2.70000007E-03   3.80847612E-15
   2.77499994E-03   4.78504455E-15
   2.85000005E-03   5.97609358E-15
   2.92499992E-03   7.42129272E-15
   3.00000003E-03   9.16634661E-15
   3.07499990E-03   1.12637289E-14
   3.15000000E-03   1.37734757E-14
   3.22500011E-03   1.67640492E-14
   3.29999998E-03   2.03132883E-14
   3.37500009E-03   2.45094218E-14
   3.44999996E-03   2.94521724E-14
   3.52500007E-03   3.52539551E-14
   3.59999994E-03   4.20411352E-14
   3.67500004E-03   4.99554147E-14
   3.74999992E-03   5.91553377E-14
   3.82500002E-03   6.98178562E-14
   3.89999989E-03   8.21399494E-14
   3.97500023E-03   9.63405652E-14
   4.05000011E-03   1.12662423E-13
   4.12499998E-03   1.31374119E-13
   4.19999985E-03   1.52772272E-13
   4.27500019E-03   1.77183829E-13
   4.35000006E-03   2.04968556E-13
   4.42499993E-03   2.36521496E-13
   4.49999981E-03   2.72275637E-13
   4.57500014E-03   3.12705048E-13
   4.65000002E-03   3.58327598E-13
   4.72499989E-03   4.09708319E-13
   4.80000023E-03   4.67462386E-13
   4.87500010E-03   5.32259078E-13
   4.94999997E-03   6.04824838E-13
   5.02499985E-03   6.85947447E-13
   5.10000018E-03   7.76479684E-13
   5.17500006E-03   8.77343716E-13
   5.24999993E-03   9.89535277E-13
   5.32499980E-03   1.11412789E-12
   5.40000014E-03   1.25227714E-12
   5.47500001E-03   1.40522609E-12
   5.54999989E-03   1.57430969E-12
   5.62500022E-03   1.76095998E-12
   5.70000010E-03   1.96671108E-12
   5.77499997E-03   2.19320417E-12
   5.84999984E-03   2.44219358E-12
   5.92500018E-03   2.71555087E-12
   6.00000005E-03   3.01527314E-12
   6.07499992E-03   3.34348651E-12
   6.14999980E-03   3.70245197E-12
   6.22500014E-03   4.09457234E-12
   6.30000001E-03   4.52239895E-12
   6.37499988E-03   4.98863364E-12
   6.45000022E-03   5.49613913E-12
   6.52500009E-03   6.04794426E-12
   6.59999996E-03   6.64724916E-12
   6.67499984E-03   7.29743089E-12
   6.75000018E-03   8.00204868E-12
   6.82500005E-03   8.76485343E-12
   6.89999992E-03   9.58979250E-12
   6.97499979E-03   1.04810102E-11
   7.05000013E-03   1.14428614E-11
   7.12500000E-03   1.24799112E-11
   7.19999988E-03   1.35969413E-11
   7.27500021E-03   1.47989572E-11
   7.35000009E-03   1.60911874E-11
   7.42499996E-03   1.74790963E-11
   7.49999983E-03   1.89683876E-11
   7.57500017E-03   2.05649976E-11
   7.65000004E-03   2.22751002E-11
   7.72499992E-03   2.41051224E-11
   7.79999979E-03   2.60617361E-11
   7.87500013E-03   2.81518645E-11
   7.95000046E-03   3.03826790E-11
   8.02499987E-03   3.27616025E-11
   8.10000021E-03   3.52963145E-11
   8.17499962E-03   3.79947393E-11
   8.24999996E-03   4.08650405E-11
   8.32500029E-03   4.39156420E-11
   8.39999970E-03   4.71551999E-11
   8.47500004E-03   5.05926204E-11
   8.55000038E-03   5.42370315E-11
   8.62499978E-03   5.80977870E-11
   8.70000012E-03   6.21844590E-11
   8.77500046E-03   6.65068348E-11
   8.84999987E-03   7.10749098E-11
   8.92500021E-03   7.58988497E-11
   8.99999961E-03   8.09890141E-11
   9.07499995E-03   8.63559155E-11
   9.15000029E-03   9.20102189E-11
   9.22499970E-03   9.79627005E-11
   9.30000003E-03   1.04224261E-10
   9.37500037E-03   1.10805906E-10
   9.44999978E-03   1.17718682E-10
   9.52500012E-03   1.24973698E-10
   9.60000046E-03   1.32582112E-10
   9.67499986E-03   1.40554998E-10
   9.75000020E-03   1.48903473E-10
   9.82499961E-03   1.57638527E-10
   9.89999995E-03   1.66771083E-10
   9.97500028E-03   1.76311923E-10
   1.00499997E-02   1.86271665E-10
   1.01250000E-02   1.96660702E-10
   1.02000004E-02   2.07489165E-10
   1.02749998E-02   2.18766893E-10
   1.03500001E-02   2.30503422E-10
   1.04250005E-02   2.42707798E-10
   1.04999999E-02   2.55388710E-10
   1.05750002E-02   2.68554373E-10
   1.06499996E-02   2.82212365E-10
   1.07249999E-02   2.96369707E-10
   1.08000003E-02   3.11032783E-10
   1.08749997E-02   3.26207172E-10
   1.09500000E-02   3.41897732E-10
   1.10250004E-02   3.58108376E-10
   1.10999998E-02   3.74842213E-10
   1.11750001E-02   3.92101213E-10
   1.12500004E-02   4.09886375E-10
   1.13249999E-02   4.28197533E-10
   1.14000002E-02   4.47033299E-10
   1.14749996E-02   4.66390926E-10
   1.15499999E-02   4.86266305E-10
   1.16250003E-02   5.06653941E-10
   1.16999997E-02   5.27546729E-10
   1.17750000E-02   5.48935897E-10
   1.18500004E-02   5.70810954E-10
   1.19249998E-02   5.93159577E-10
   1.20000001E-02   6.15967555E-10
   1.20750004E-02   6.39218734E-10
   1.21499998E-02   6.62894739E-10
   1.22250002E-02   6.86975143E-10
   1.22999996E-02   7.11437131E-10
   1.23749999E-02   7.36255501E-10
   1.24500003E-02   7.61402663E-10
   1.25249997E-02   7.86848364E-10
   1.26000000E-02   8.12559742E-10
   1.26750004E-02   8.38501102E-10
   1.27499998E-02   8.64633920E-10
   1.28250001E-02   8.90916674E-10
   1.29000004E-02   9.17304788E-10
   1.29749998E-02   9.43750633E-10
   1.30500002E-02   9.70203251E-10
   1.31249996E-02   9.96608240E-10
   1.31999999E-02   1.02290798E-09
   1.32750003E-02   1.04904119E-09
   1.33499997E-02   1.07494302E-09
   1.34250000E-02   1.10054488E-09
   1.35000004E-02   1.12577458E-09
   1.35749998E-02   1.15055587E-09
   1.36500001E-02   1.17480869E-09
   1.37250004E-02   1.19844912E-09
   1.37999998E-02   1.22138899E-09
   1.38750002E-02   1.24353616E-09
   1.39499996E-02   1.26479405E-09
   1.40249999E-02   1.28506217E-09
   1.41000003E-02   1.30423583E-09
   1.41749997E-02   1.32220557E-09
   1.42500000E-02   1.33885791E-09
   1.43250003E-02   1.35407519E-09
   1.43999998E-02   1.36773515E-09
   1.44750001E-02   1.37971101E-09
   1.45500004E-02   1.38987188E-09
   1.46249998E-02   1.39808232E-09
   1.47000002E-02   1.40420264E-09
   1.47749996E-02   1.40808853E-09
   1.48499999E-02   1.40959167E-09
   1.49250003E-02   1.40855938E-09
   1.49999997E-02   1.40483469E-09
   1.50750000E-02   1.39825662E-09
   1.51500003E-02   1.38865985E-09
   1.52249997E-02   1.37587541E-09
   1.53000001E-02   1.35972988E-09
   1.53750004E-02   1.34004652E-09
   1.54499998E-02   1.31664502E-09
   1.55250002E-02   1.28934108E-09
   1.55999996E-02   1.25794741E-09
   1.56750008E-02   1.22227328E-09
   1.57500003E-02   1.18212495E-09
   1.58249997E-02   1.13730592E-09
   1.59000009E-02   1.08761700E-09
   1.59750003E-02   1.03285647E-09
   1.60499997E-02   9.72820380E-10
   1.61249992E-02   9.07303066E-10
   1.62000004E-02   8.36096692E-10
   1.62749998E-02   7.58992424E-10
   1.63499992E-02   6.75780598E-10
   1.64250005E-02   5.86250104E-10
   1.64999999E-02   4.90189389E-10
   1.65749993E-02   3.87387011E-10
   1.66500006E-02   2.77631668E-10
   1.67250000E-02   1.60712707E-10
   1.67999994E-02   3.64201828E-11
   1.68750007E-02  -9.54540474E-11
   1.69500001E-02  -2.35116621E-10
   1.70249995E-02  -3.82772036E-10
   1.71000008E-02  -5.38621869E-10
   1.71750002E-02  -7.02864711E-10
   1.72499996E-02  -8.75695017E-10
   1.73250008E-02  -1.05730402E-09
   1.74000002E-02  -1.24787769E-09
   1.74749997E-02  -1.44759682E-09
   1.75500009E-02  -1.65663694E-09
   1.76250003E-02  -1.87516624E-09
   1.76999997E-02  -2.10334683E-09
   1.77749991E-02  -2.34133379E-09
   1.78500004E-02  -2.58927346E-09
   1.79249998E-02  -2.84730328E-09
   1.79999992E-02  -3.11555248E-09
   1.80750005E-02  -3.39413964E-09
   1.81499999E-02  -3.68317310E-09
   1.82249993E-02  -3.98274969E-09
   1.83000006E-02  -4.29295444E-09
   1.83750000E-02  -4.61385907E-09
   1.84499994E-02  -4.94552488E-09
   1.85250007E-02  -5.28799626E-09
   1.86000001E-02  -5.64130431E-09
   1.86749995E-02  -6.00546413E-09
   1.87500007E-02  -6.38047659E-09
   1.88250002E-02  -6.76632395E-09
   1.88999996E-02  -7.16297155E-09
   1.89750008E-02  -7.57036744E-09
   1.90500002E-02  -7.98844102E-09
   1.91249996E-02  -8.41709991E-09
   1.92000009E-02  -8.85623486E-09
   1.92750003E-02  -9.30571442E-09
   1.93499997E-02  -9.76538317E-09
   1.94249991E-02  -1.02350679E-08
   1.95000004E-02  -1.07145679E-08
   1.95749998E-02  -1.12036629E-08
   1.96499992E-02  -1.17021060E-08
   1.97250005E-02  -1.22096262E-08
   1.97999999E-02  -1.27259261E-08
   1.98749993E-02  -1.32506841E-08
   1.99500006E-02  -1.37835494E-08
   2.00250000E-02  -1.43241463E-08
   2.00999994E-02  -1.48720689E-08
   2.01750007E-02  -1.54268864E-08
   2.02500001E-02  -1.59881353E-08
   2.03249995E-02  -1.65553242E-08
   2.04000007E-02  -1.71279346E-08
   2.04750001E-02  -1.77054122E-08
   2.05499995E-02  -1.82871762E-08
   2.06250008E-02  -1.88726137E-08
   2.07000002E-02  -1.94610816E-08
   2.07749996E-02  -2.00519032E-08
   2.08500009E-02  -2.06443698E-08
   2.09250003E-02  -2.12377422E-08
   2.09999997E-02  -2.18312479E-08
   2.10749991E-02  -2.24240821E-08
   2.11500004E-02  -2.30154082E-08
   2.12249998E-02  -2.36043558E-08
   2.12999992E-02  -2.41900224E-08
   2.13750005E-02  -2.47714738E-08
   2.14499999E-02  -2.53477435E-08
   2.15249993E-02  -2.59178297E-08
   2.16000006E-02  -2.64807021E-08
   2.16750000E-02  -2.70352967E-08
   2.17499994E-02  -2.75805174E-08
   2.18250006E-02  -2.81152381E-08
   2.19000001E-02  -2.86383042E-08
   2.19749995E-02  -2.91485254E-08
   2.20500007E-02  -2.96446867E-08
   2.21250001E-02  -3.01255376E-08
   2.21999995E-02  -3.05898098E-08
   2.22750008E-02  -3.10362012E-08
   2.23500002E-02  -3.14633795E-08
   2.24249996E-02  -3.18699911E-08
   2.25000009E-02  -3.22546576E-08
   2.25750003E-02  -3.26159721E-08
   2.26499997E-02  -3.29525101E-08
   2.27249991E-02  -3.32628218E-08
   2.28000004E-02  -3.35454367E-08
   2.28749998E-02  -3.37988695E-08
   2.29499992E-02  -3.40216175E-08
   2.30250005E-02  -3.42121496E-08
   2.30999999E-02  -3.43689308E-08
   2.31749993E-02  -3.44904123E-08
   2.32500006E-02  -3.45750308E-08
   2.33250000E-02  -3.46212126E-08
   2.33999994E-02  -3.46273801E-08
   2.34750006E-02  -3.45919418E-08
   2.35500000E-02  -3.45133024E-08
   2.36249994E-02  -3.43898776E-08
   2.37000007E-02  -3.42200650E-08
   2.37750001E-02  -3.40022801E-08
   2.38499995E-02  -3.37349242E-08
   2.39250008E-02  -3.34164163E-08
   2.40000002E-02  -3.30451897E-08
   2.40749996E-02  -3.26196776E-08
   2.41500009E-02  -3.21383311E-08
   2.42250003E-02  -3.15996118E-08
   2.42999997E-02  -3.10020098E-08
   2.43749991E-02  -3.03440331E-08
   2.44500004E-02  -2.96242000E-08
   2.45249998E-02  -2.88410735E-08
   2.45999992E-02  -2.79932433E-08
   2.46750005E-02  -2.70793254E-08
   2.47499999E-02  -2.60979665E-08
   2.48249993E-02  -2.50478589E-08
   2.49000005E-02  -2.39277362E-08
   2.49749999E-02  -2.27363746E-08
   2.50499994E-02  -2.14725926E-08
   2.51250006E-02  -2.01352641E-08
   2.52000000E-02  -1.87233109E-08
   2.52749994E-02  -1.72357133E-08
   2.53500007E-02  -1.56715121E-08
   2.54250001E-02  -1.40298049E-08
   2.54999995E-02  -1.23097621E-08
   2.55750008E-02  -1.05106190E-08
   2.56500002E-02  -8.63167848E-09
   2.57249996E-02  -6.67232447E-09
   2.58000009E-02  -4.63200944E-09
   2.58750003E-02  -2.51027599E-09
   2.59499997E-02  -3.06748626E-10
   2.60249991E-02   1.97886751E-09
   2.61000004E-02   4.34677050E-09
   2.61749998E-02   6.79706869E-09
   2.62499992E-02   9.32977251E-09
   2.63250005E-02   1.19447963E-08
   2.63999999E-02   1.46419499E-08
   2.64749993E-02   1.74209429E-08
   2.65500005E-02   2.02813801E-08
   2.66249999E-02   2.32227482E-08
   2.66999993E-02   2.62444253E-08
   2.67750006E-02   2.93456779E-08
   2.68500000E-02   3.25256515E-08
   2.69249994E-02   3.57833727E-08
   2.70000007E-02   3.91177473E-08
   2.70750001E-02   4.25275601E-08
   2.71499995E-02   4.60114578E-08
   2.72250008E-02   4.95679728E-08
   2.73000002E-02   5.31954996E-08
   2.73749996E-02   5.68923006E-08
   2.74500009E-02   6.06565109E-08
   2.75250003E-02   6.44861231E-08
   2.75999997E-02   6.83790020E-08
   2.76749991E-02   7.23328739E-08
   2.77500004E-02   7.63453158E-08
   2.78249998E-02   8.04137770E-08
   2.78999992E-02   8.45355572E-08
   2.79750004E-02   8.87078286E-08
   2.80499998E-02   9.29276140E-08
   2.81249993E-02   9.71917800E-08
   2.82000005E-02   1.01497079E-07
   2.82749999E-02   1.05840101E-07
   2.83499993E-02   1.10217307E-07
   2.84250006E-02   1.14625024E-07
   2.85000000E-02   1.19059408E-07
   2.85749994E-02   1.23516514E-07
   2.86500007E-02   1.27992237E-07
   2.87250001E-02   1.32482327E-07
   2.87999995E-02   1.36982408E-07
   2.88750008E-02   1.41487988E-07
   2.89500002E-02   1.45994420E-07
   2.90249996E-02   1.50496916E-07
   2.91000009E-02   1.54990602E-07
   2.91750003E-02   1.59470446E-07
   2.92499997E-02   1.63931290E-07
   2.93249991E-02   1.68367876E-07
   2.94000003E-02   1.72774804E-07
   2.94749998E-02   1.77146589E-07
   2.95499992E-02   1.81477631E-07
   2.96250004E-02   1.85762204E-07
   2.96999998E-02   1.89994495E-07
   2.97749992E-02   1.94168607E-07
   2.98500005E-02   1.98278499E-07
   2.99249999E-02   2.02318077E-07
   2.99999993E-02   2.06281186E-07
   3.00750006E-02   2.10161545E-07
   3.01500000E-02   2.13952845E-07
   3.02249994E-02   2.17648676E-07
   3.03000007E-02   2.21242558E-07
   3.03750001E-02   2.24727984E-07
   3.04499995E-02   2.28098401E-07
   3.05250008E-02   2.31347173E-07
   3.06000002E-02   2.34467649E-07
   3.06749996E-02   2.37453165E-07
   3.07500008E-02   2.40296998E-07
   3.08250003E-02   2.42992428E-07
   3.08999997E-02   2.45532704E-07
   3.09749991E-02   2.47911146E-07
   3.10500003E-02   2.50120962E-07
   3.11249997E-02   2.52155502E-07
   3.11999992E-02   2.54008000E-07
   3.12750004E-02   2.55671836E-07
   3.13500017E-02   2.57140357E-07
   3.14249992E-02   2.58406999E-07
   3.15000005E-02   2.59465224E-07
   3.15750018E-02   2.60308553E-07
   3.16499993E-02   2.60930619E-07
   3.17250006E-02   2.61325084E-07
   3.18000019E-02   2.61485724E-07
   3.18749994E-02   2.61406399E-07
   3.19500007E-02   2.61081112E-07
   3.20249982E-02   2.60503896E-07
   3.20999995E-02   2.59669036E-07
   3.21750008E-02   2.58570878E-07
   3.22499983E-02   2.57203851E-07
   3.23249996E-02   2.55562668E-07
   3.24000008E-02   2.53642099E-07
   3.24749984E-02   2.51437086E-07
   3.25499997E-02   2.48942797E-07
   3.26250009E-02   2.46154599E-07
   3.26999985E-02   2.43068001E-07
   3.27749997E-02   2.39678769E-07
   3.28500010E-02   2.35982881E-07
   3.29249986E-02   2.31976429E-07
   3.29999998E-02   2.27655903E-07
   3.30750011E-02   2.23017906E-07
   3.31499986E-02   2.18059341E-07
   3.32249999E-02   2.12777366E-07
   3.33000012E-02   2.07169464E-07
   3.33749987E-02   2.01233320E-07
   3.34500000E-02   1.94966859E-07
   3.35250013E-02   1.88368347E-07
   3.35999988E-02   1.81436349E-07
   3.36750001E-02   1.74169728E-07
   3.37500013E-02   1.66567659E-07
   3.38249989E-02   1.58629661E-07
   3.39000002E-02   1.50355547E-07
   3.39750014E-02   1.41745460E-07
   3.40499990E-02   1.32799840E-07
   3.41250002E-02   1.23519555E-07
   3.42000015E-02   1.13905735E-07
   3.42749991E-02   1.03959884E-07
   3.43500003E-02   9.36838802E-08
   3.44250016E-02   8.30799536E-08
   3.44999991E-02   7.21507050E-08
   3.45750004E-02   6.08991328E-08
   3.46500017E-02   4.93285661E-08
   3.47249992E-02   3.74426996E-08
   3.48000005E-02   2.52455976E-08
   3.48750018E-02   1.27417383E-08
   3.49499993E-02  -6.40213785E-11
   3.50250006E-02  -1.31664288E-08
   3.51000018E-02  -2.65598850E-08
   3.51749994E-02  -4.02383975E-08
   3.52500007E-02  -5.41955814E-08
   3.53249982E-02  -6.84246899E-08
   3.53999995E-02  -8.29185822E-08
   3.54750007E-02  -9.76697194E-08
   3.55499983E-02  -1.12670193E-07
   3.56249996E-02  -1.27911733E-07
   3.57000008E-02  -1.43385677E-07
   3.57749984E-02  -1.59083001E-07
   3.58499996E-02  -1.74994312E-07
   3.59250009E-02  -1.91109848E-07
   3.59999985E-02  -2.07419504E-07
   3.60749997E-02  -2.23912792E-07
   3.61500010E-02  -2.40578913E-07
   3.62249985E-02  -2.57406697E-07
   3.62999998E-02  -2.74384689E-07
   3.63750011E-02  -2.91500982E-07
   3.64499986E-02  -3.08743495E-07
   3.65249999E-02  -3.26099752E-07
   3.66000012E-02  -3.43556991E-07
   3.66749987E-02  -3.61102110E-07
   3.67500000E-02  -3.78721808E-07
   3.68250012E-02  -3.96402442E-07
   3.68999988E-02  -4.14130142E-07
   3.69750001E-02  -4.31890697E-07
   3.70500013E-02  -4.49669727E-07
   3.71249989E-02  -4.67452679E-07
   3.72000001E-02  -4.85224632E-07
   3.72750014E-02  -5.02970465E-07
   3.73499990E-02  -5.20675030E-07
   3.74250002E-02  -5.38322809E-07
   3.75000015E-02  -5.55898225E-07
   3.75749990E-02  -5.73385421E-07
   3.76500003E-02  -5.90768593E-07
   3.77250016E-02  -6.08031598E-07
   3.77999991E-02  -6.25158293E-07
   3.78750004E-02  -6.42132363E-07
   3.79500017E-02  -6.58937552E-07
   3.80249992E-02  -6.75557374E-07
   3.81000005E-02  -6.91975401E-07
   3.81750017E-02  -7.08175094E-07
   3.82499993E-02  -7.24139852E-07
   3.83250006E-02  -7.39853249E-07
   3.84000018E-02  -7.55298629E-07
   3.84749994E-02  -7.70459621E-07
   3.85500006E-02  -7.85319685E-07
   3.86249982E-02  -7.99862391E-07
   3.86999995E-02  -8.14071484E-07
   3.87750007E-02  -8.27930648E-07
   3.88499983E-02  -8.41423912E-07
   3.89249995E-02  -8.54535188E-07
   3.90000008E-02  -8.67248673E-07
   3.90749983E-02  -8.79548622E-07
   3.91499996E-02  -8.91419575E-07
   3.92250009E-02  -9.02846239E-07
   3.92999984E-02  -9.13813494E-07
   3.93749997E-02  -9.24306505E-07
   3.94500010E-02  -9.34310606E-07
   3.95249985E-02  -9.43811472E-07
   3.95999998E-02  -9.52795062E-07
   3.96750011E-02  -9.61247565E-07
   3.97499986E-02  -9.69155394E-07
   3.98249999E-02  -9.76505589E-07
   3.99000011E-02  -9.83285304E-07
   3.99749987E-02  -9.89481919E-07
   4.00500000E-02  -9.95083496E-07
   4.01250012E-02  -1.00007833E-06
   4.01999988E-02  -1.00445504E-06
   4.02750000E-02  -1.00820284E-06
   4.03500013E-02  -1.01131116E-06
   4.04249988E-02  -1.01376997E-06
   4.05000001E-02  -1.01556975E-06
   4.05750014E-02  -1.01670128E-06
   4.06499989E-02  -1.01715602E-06
   4.07250002E-02  -1.01692581E-06
   4.08000015E-02  -1.01600290E-06
   4.08749990E-02  -1.01437990E-06
   4.09500003E-02  -1.01205046E-06
   4.10250016E-02  -1.00900832E-06
   4.10999991E-02  -1.00524778E-06
   4.11750004E-02  -1.00076375E-06
   4.12500016E-02  -9.95551659E-07
   4.13249992E-02  -9.89607543E-07
   4.14000005E-02  -9.82927872E-07
   4.14750017E-02  -9.75509806E-07
   4.15499993E-02  -9.67350729E-07
   4.16250005E-02  -9.58449164E-07
   4.17000018E-02  -9.48803518E-07
   4.17749994E-02  -9.38413280E-07
   4.18500006E-02  -9.27278450E-07
   4.19249982E-02  -9.15399255E-07
   4.19999994E-02  -9.02776719E-07
   4.20750007E-02  -8.89412490E-07
   4.21499982E-02  -8.75308729E-07
   4.22249995E-02  -8.60468163E-07
   4.23000008E-02  -8.44893748E-07
   4.23749983E-02  -8.28589464E-07
   4.24499996E-02  -8.11559573E-07
   4.25250009E-02  -7.93808852E-07
   4.25999984E-02  -7.75342698E-07
   4.26749997E-02  -7.56167140E-07
   4.27500010E-02  -7.36288598E-07
   4.28249985E-02  -7.15713952E-07
   4.28999998E-02  -6.94450591E-07
   4.29750010E-02  -6.72506530E-07
   4.30499986E-02  -6.49890012E-07
   4.31249999E-02  -6.26609847E-07
   4.32000011E-02  -6.02675300E-07
   4.32749987E-02  -5.78096319E-07
   4.33499999E-02  -5.52883023E-07
   4.34250012E-02  -5.27045870E-07
   4.34999987E-02  -5.00595831E-07
   4.35750000E-02  -4.73544191E-07
   4.36500013E-02  -4.45902657E-07
   4.37249988E-02  -4.17683452E-07
   4.38000001E-02  -3.88898826E-07
   4.38750014E-02  -3.59561483E-07
   4.39499989E-02  -3.29684468E-07
   4.40250002E-02  -2.99281027E-07
   4.41000015E-02  -2.68364744E-07
   4.41749990E-02  -2.36949404E-07
   4.42500003E-02  -2.05048963E-07
   4.43250015E-02  -1.72677588E-07
   4.43999991E-02  -1.39849746E-07
   4.44750004E-02  -1.06579968E-07
   4.45500016E-02  -7.28829832E-08
   4.46249992E-02  -3.87734644E-08
   4.47000004E-02  -4.26645119E-09
   4.47750017E-02   3.06229637E-08
   4.48499992E-02   6.58798243E-08
   4.49250005E-02   1.01488972E-07
   4.50000018E-02   1.37435222E-07
   4.50749993E-02   1.73703398E-07
   4.51500006E-02   2.10278387E-07
   4.52249981E-02   2.47145209E-07
   4.52999994E-02   2.84288831E-07
   4.53750007E-02   3.21694102E-07
   4.54499982E-02   3.59346160E-07
   4.55249995E-02   3.97230338E-07
   4.56000008E-02   4.35331998E-07
   4.56749983E-02   4.73636675E-07
   4.57499996E-02   5.12130043E-07
   4.58250009E-02   5.50797893E-07
   4.58999984E-02   5.89626268E-07
   4.59749997E-02   6.28601583E-07
   4.60500009E-02   6.67710196E-07
   4.61249985E-02   7.06939034E-07
   4.61999997E-02   7.46275077E-07
   4.62750010E-02   7.85705481E-07
   4.63499986E-02   8.25217853E-07
   4.64249998E-02   8.64800143E-07
   4.65000011E-02   9.04440412E-07
   4.65749986E-02   9.44127180E-07
   4.66499999E-02   9.83849304E-07
   4.67250012E-02   1.02359581E-06
   4.67999987E-02   1.06335619E-06
   4.68750000E-02   1.10312033E-06
   4.69500013E-02   1.14287832E-06
   4.70249988E-02   1.18262074E-06
   4.71000001E-02   1.22233848E-06
   4.71750014E-02   1.26202269E-06
   4.72499989E-02   1.30166495E-06
   4.73250002E-02   1.34125719E-06
   4.74000014E-02   1.38079167E-06
   4.74749990E-02   1.42026101E-06
   4.75500003E-02   1.45965828E-06
   4.76250015E-02   1.49897687E-06
   4.76999991E-02   1.53821031E-06
   4.77750003E-02   1.57735269E-06
   4.78500016E-02   1.61639809E-06
   4.79249991E-02   1.65534129E-06
   4.80000004E-02   1.69417729E-06
   4.80750017E-02   1.73290084E-06
   4.81499992E-02   1.77150753E-06
   4.82250005E-02   1.80999314E-06
   4.83000018E-02   1.84835346E-06
   4.83749993E-02   1.88658464E-06
   4.84500006E-02   1.92468315E-06
   4.85250019E-02   1.96264500E-06
   4.85999994E-02   2.00046725E-06
   4.86750007E-02   2.03814625E-06
   4.87499982E-02   2.07567882E-06
   4.88249995E-02   2.11306224E-06
   4.89000008E-02   2.15029331E-06
   4.89749983E-02   2.18736886E-06
   4.90499996E-02   2.22428571E-06
   4.91250008E-02   2.26104089E-06
   4.91999984E-02   2.29763145E-06
   4.92749996E-02   2.33405376E-06
   4.93500009E-02   2.37030440E-06
   4.94249985E-02   2.40637974E-06
   4.94999997E-02   2.44227613E-06
   4.95750010E-02   2.47798926E-06
   4.96499985E-02   2.51351480E-06
   4.97249998E-02   2.54884799E-06
   4.98000011E-02   2.58398359E-06
   4.98749986E-02   2.61891637E-06
   4.99499999E-02   2.65364065E-06
   5.00250012E-02   2.68814961E-06
   5.00999987E-02   2.72243642E-06
   5.01750000E-02   2.75649359E-06
   5.02500013E-02   2.79031269E-06
   5.03249988E-02   2.82388555E-06
   5.04000001E-02   2.85720262E-06
   5.04750013E-02   2.89025343E-06
   5.05499989E-02   2.92302684E-06
   5.06250001E-02   2.95551149E-06
   5.07000014E-02   2.98769464E-06
   5.07749990E-02   3.01956288E-06
   5.08500002E-02   3.05110188E-06
   5.09250015E-02   3.08229573E-06
   5.09999990E-02   3.11312783E-06
   5.10750003E-02   3.14358113E-06
   5.11500016E-02   3.17363674E-06
   5.12249991E-02   3.20327467E-06
   5.13000004E-02   3.23247446E-06
   5.13750017E-02   3.26121381E-06
   5.14499992E-02   3.28946930E-06
   5.15250005E-02   3.31721617E-06
   5.16000018E-02   3.34442848E-06
   5.16749993E-02   3.37107917E-06
   5.17500006E-02   3.39713961E-06
   5.18250018E-02   3.42257931E-06
   5.18999994E-02   3.44736645E-06
   5.19750006E-02   3.47146852E-06
   5.20499982E-02   3.49485094E-06
   5.21249995E-02   3.51747758E-06
   5.22000007E-02   3.53931114E-06
   5.22749983E-02   3.56031296E-06
   5.23499995E-02   3.58044213E-06
   5.24250008E-02   3.59965657E-06
   5.24999984E-02   3.61791240E-06
   5.25749996E-02   3.63516460E-06
   5.26500009E-02   3.65136611E-06
   5.27249984E-02   3.66646896E-06
   5.27999997E-02   3.68042242E-06
   5.28750010E-02   3.69317536E-06
   5.29499985E-02   3.70467455E-06
   5.30249998E-02   3.71486522E-06
   5.31000011E-02   3.72369095E-06
   5.31749986E-02   3.73109378E-06
   5.32499999E-02   3.73701391E-06
   5.33250012E-02   3.74139086E-06
   5.33999987E-02   3.74416231E-06
   5.34750000E-02   3.74526394E-06
   5.35500012E-02   3.74463048E-06
   5.36249988E-02   3.74219576E-06
   5.37000000E-02   3.73789112E-06
   5.37750013E-02   3.73164744E-06
   5.38499989E-02   3.72339400E-06
   5.39250001E-02   3.71305850E-06
   5.40000014E-02   3.70056887E-06
   5.40749989E-02   3.68584961E-06
   5.41500002E-02   3.66882637E-06
   5.42250015E-02   3.64942275E-06
   5.42999990E-02   3.62756123E-06
   5.43750003E-02   3.60316426E-06
   5.44500016E-02   3.57615272E-06
   5.45249991E-02   3.54644703E-06
   5.46000004E-02   3.51396670E-06
   5.46750017E-02   3.47863124E-06
   5.47499992E-02   3.44035993E-06
   5.48250005E-02   3.39907069E-06
   5.49000017E-02   3.35468189E-06
   5.49749993E-02   3.30711077E-06
   5.50500005E-02   3.25627570E-06
   5.51250018E-02   3.20209506E-06
   5.51999994E-02   3.14448675E-06
   5.52750006E-02   3.08336826E-06
   5.53499982E-02   3.01865884E-06
   5.54249994E-02   2.95027735E-06
   5.55000007E-02   2.87814373E-06
   5.55749983E-02   2.80217864E-06
   5.56499995E-02   2.72230318E-06
   5.57250008E-02   2.63843981E-06
   5.57999983E-02   2.55051168E-06
   5.58749996E-02   2.45844376E-06
   5.59500009E-02   2.36216215E-06
   5.60249984E-02   2.26159409E-06
   5.60999997E-02   2.15666932E-06
   5.61750010E-02   2.04731828E-06
   5.62499985E-02   1.93347410E-06
   5.63249998E-02   1.81507255E-06
   5.64000010E-02   1.69205055E-06
   5.64749986E-02   1.56434817E-06
   5.65499999E-02   1.43190766E-06
   5.66250011E-02   1.29467401E-06
   5.66999987E-02   1.15259547E-06
   5.67749999E-02   1.00562283E-06
   5.68500012E-02   8.53710276E-07
   5.69249988E-02   6.96815505E-07
   5.70000000E-02   5.34899527E-07
   5.70750013E-02   3.67926958E-07
   5.71499988E-02   1.95866576E-07
   5.72250001E-02   1.86907823E-08
   5.73000014E-02  -1.63623938E-07
   5.73749989E-02  -3.51096389E-07
   5.74500002E-02  -5.43741237E-07
   5.75250015E-02  -7.41568726E-07
   5.75999990E-02  -9.44583917E-07
   5.76750003E-02  -1.15278715E-06
   5.77500015E-02  -1.36617405E-06
   5.78249991E-02  -1.58473438E-06
   5.79000004E-02  -1.80845302E-06
   5.79750016E-02  -2.03730929E-06
   5.80499992E-02  -2.27127680E-06
   5.81250004E-02  -2.51032338E-06
   5.82000017E-02  -2.75441107E-06
   5.82749993E-02  -3.00349552E-06
   5.83500005E-02  -3.25752694E-06
   5.84250018E-02  -3.51644871E-06
   5.84999993E-02  -3.78019786E-06
   5.85750006E-02  -4.04870480E-06
   5.86499982E-02  -4.32189290E-06
   5.87249994E-02  -4.59968032E-06
   5.88000007E-02  -4.88197657E-06
   5.88749982E-02  -5.16868568E-06
   5.89499995E-02  -5.45970443E-06
   5.90250008E-02  -5.75492095E-06
   5.90999983E-02  -6.05421837E-06
   5.91749996E-02  -6.35747028E-06
   5.92500009E-02  -6.66454480E-06
   5.93249984E-02  -6.97530277E-06
   5.93999997E-02  -7.28959549E-06
   5.94750009E-02  -7.60726880E-06
   5.95499985E-02  -7.92815990E-06
   5.96249998E-02  -8.25209918E-06
   5.97000010E-02  -8.57890973E-06
   5.97749986E-02  -8.90840420E-06
   5.98499998E-02  -9.24039159E-06
   5.99250011E-02  -9.57467091E-06
   5.99999987E-02  -9.91103570E-06
   6.00749999E-02  -1.02492686E-05
   6.01500012E-02  -1.05891477E-05
   6.02249987E-02  -1.09304401E-05
   6.03000000E-02  -1.12729094E-05
   6.03750013E-02  -1.16163092E-05
   6.04499988E-02  -1.19603874E-05
   6.05250001E-02  -1.23048831E-05
   6.06000014E-02  -1.26495297E-05
   6.06749989E-02  -1.29940518E-05
   6.07500002E-02  -1.33381673E-05
   6.08250014E-02  -1.36815870E-05
   6.08999990E-02  -1.40240172E-05
   6.09750003E-02  -1.43651550E-05
   6.10500015E-02  -1.47046912E-05
   6.11249991E-02  -1.50423111E-05
   6.12000003E-02  -1.53776928E-05
   6.12750016E-02  -1.57105096E-05
   6.13499992E-02  -1.60404270E-05
   6.14250004E-02  -1.63671066E-05
   6.15000017E-02  -1.66902046E-05
   6.15749992E-02  -1.70093681E-05
   6.16500005E-02  -1.73242443E-05
   6.17250018E-02  -1.76344729E-05
   6.17999993E-02  -1.79396902E-05
   6.18750006E-02  -1.82395270E-05
   6.19499981E-02  -1.85336085E-05
   6.20249994E-02  -1.88215599E-05
   6.21000007E-02  -1.91029976E-05
   6.21749982E-02  -1.93775395E-05
   6.22499995E-02  -1.96447982E-05
   6.23250008E-02  -1.99043825E-05
   6.23999983E-02  -2.01559033E-05
   6.24749996E-02  -2.03989639E-05
   6.25500008E-02  -2.06331733E-05
   6.26249984E-02  -2.08581296E-05
   6.27000034E-02  -2.10734324E-05
   6.27750009E-02  -2.12786836E-05
   6.28499985E-02  -2.14734846E-05
   6.29250035E-02  -2.16574372E-05
   6.30000010E-02  -2.18301411E-05
   6.30749986E-02  -2.19911981E-05
   6.31500036E-02  -2.21402079E-05
   6.32250011E-02  -2.22767776E-05
   6.32999986E-02  -2.24005125E-05
   6.33750036E-02  -2.25110180E-05
   6.34500012E-02  -2.26079082E-05
   6.35249987E-02  -2.26907960E-05
   6.36000037E-02  -2.27592991E-05
   6.36750013E-02  -2.28130430E-05
   6.37499988E-02  -2.28516492E-05
   6.38249964E-02  -2.28747522E-05
   6.39000013E-02  -2.28819827E-05
   6.39749989E-02  -2.28729878E-05
   6.40499964E-02  -2.28474164E-05
   6.41250014E-02  -2.28049194E-05
   6.41999990E-02  -2.27451619E-05