   0.00000000       0.00000000    
   7.50000036E-05   0.00000000    
   1.50000007E-04   0.00000000    
   2.24999996E-04   0.00000000    
   3.00000014E-04   3.29935743E-26
   3.75000003E-04   2.85206152E-25
   4.49999992E-04   1.28434424E-24
   5.24999981E-04   3.96359296E-24
   6.00000028E-04   9.12754508E-24
   6.75000018E-04   1.54730475E-23
   7.50000007E-04   1.48612181E-23
   8.24999996E-04  -1.70391747E-23
   8.99999985E-04  -1.37264221E-22
   9.74999974E-04  -4.62510941E-22
   1.04999996E-03  -1.21056196E-21
   1.12499995E-03  -2.76105497E-21
   1.20000006E-03  -5.74180394E-21
   1.27500005E-03  -1.11471530E-20
   1.35000004E-03  -2.04969362E-20
   1.42500002E-03  -3.60446634E-20
   1.50000001E-03  -6.10448112E-20
   1.57500000E-03  -1.00093080E-19
   1.64999999E-03  -1.59548690E-19
   1.72499998E-03  -2.48054870E-19
   1.79999997E-03  -3.77174145E-19
   1.87499996E-03  -5.62151376E-19
   1.94999995E-03  -8.22825196E-19
   2.02500005E-03  -1.18470658E-18
   2.09999993E-03  -1.68024226E-18
   2.17500003E-03  -2.35028337E-18
   2.24999990E-03  -3.24578827E-18
   2.32500001E-03  -4.42978462E-18
   2.40000011E-03  -5.97959021E-18
   2.47499999E-03  -7.98936282E-18
   2.55000009E-03  -1.05729647E-17
   2.62499996E-03  -1.38671668E-17
   2.70000007E-03  -1.80352737E-17
   2.77499994E-03  -2.32711565E-17
   2.85000005E-03  -2.98037112E-17
   2.92499992E-03  -3.79017862E-17
   3.00000003E-03  -4.78795300E-17
   3.07499990E-03  -6.01024404E-17
   3.15000000E-03  -7.49938685E-17
   3.22500011E-03  -9.30421025E-17
   3.29999998E-03  -1.14808037E-16
   3.37500009E-03  -1.40933418E-16
   3.44999996E-03  -1.72150076E-16
   3.52500007E-03  -2.09289480E-16
   3.59999994E-03  -2.53293000E-16
   3.67500004E-03  -3.05223161E-16
   3.74999992E-03  -3.66275575E-16
   3.82500002E-03  -4.37791440E-16
   3.89999989E-03  -5.21270799E-16
   3.97500023E-03  -6.18386938E-16
   4.05000011E-03  -7.31001027E-16
   4.12499998E-03  -8.61178397E-16
   4.19999985E-03  -1.01120561E-15
   4.27500019E-03  -1.18360530E-15
   4.35000006E-03  -1.38115678E-15
   4.42499993E-03  -1.60691520E-15
   4.49999981E-03  -1.86422952E-15
   4.57500014E-03  -2.15676399E-15
   4.65000002E-03  -2.48851673E-15
   4.72499989E-03  -2.86384719E-15
   4.80000023E-03  -3.28749453E-15
   4.87500010E-03  -3.76459897E-15
   4.94999997E-03  -4.30072975E-15
   5.02499985E-03  -4.90190799E-15
   5.10000018E-03  -5.57462876E-15
   5.17500006E-03  -6.32588430E-15
   5.24999993E-03  -7.16319585E-15
   5.32499980E-03  -8.09463817E-15
   5.40000014E-03  -9.12886286E-15
   5.47500001E-03  -1.02751153E-14
   5.54999989E-03  -1.15432718E-14
   5.62500022E-03  -1.29438628E-14
   5.70000010E-03  -1.44880920E-14
   5.77499997E-03  -1.61878635E-14
   5.84999984E-03  -1.80558083E-14
   5.92500018E-03  -2.01052960E-14
   6.00000005E-03  -2.23504737E-14
   6.07499992E-03  -2.48062713E-14
   6.14999980E-03  -2.74884299E-14
   6.22500014E-03  -3.04135243E-14
   6.30000001E-03  -3.35989713E-14
   6.37499988E-03  -3.70630447E-14
   6.45000022E-03  -4.08248874E-14
   6.52500009E-03  -4.49045098E-14
   6.59999996E-03  -4.93228234E-14
   6.67499984E-03  -5.41016342E-14
   6.75000018E-03  -5.92636495E-14
   6.82500005E-03  -6.48324574E-14
   6.89999992E-03  -7.08325271E-14
   6.97499979E-03  -7.72892153E-14
   7.05000013E-03  -8.42287259E-14
   7.12500000E-03  -9.16781367E-14
   7.19999988E-03  -9.96653728E-14
   7.27500021E-03  -1.08219172E-13
   7.35000009E-03  -1.17369019E-13
   7.42499996E-03  -1.27145121E-13
   7.49999983E-03  -1.37578371E-13
   7.57500017E-03  -1.48700388E-13
   7.65000004E-03  -1.60543359E-13
   7.72499992E-03  -1.73139958E-13
   7.79999979E-03  -1.86523377E-13
   7.87500013E-03  -2.00727157E-13
   7.95000046E-03  -2.15785153E-13
   8.02499987E-03  -2.31731545E-13
   8.10000021E-03  -2.48600511E-13
   8.17499962E-03  -2.66426367E-13
   8.24999996E-03  -2.85243319E-13
   8.32500029E-03  -3.05085384E-13
   8.39999970E-03  -3.25986254E-13
   8.47500004E-03  -3.47978970E-13
   8.55000038E-03  -3.71096139E-13
   8.62499978E-03  -3.95369609E-13
   8.70000012E-03  -4.20830336E-13
   8.77500046E-03  -4.47508052E-13
   8.84999987E-03  -4.75431164E-13
   8.92500021E-03  -5.04626506E-13
   8.99999961E-03  -5.35119312E-13
   9.07499995E-03  -5.66933056E-13
   9.15000029E-03  -6.00088989E-13
   9.22499970E-03  -6.34605866E-13
   9.30000003E-03  -6.70500114E-13
   9.37500037E-03  -7.07784905E-13
   9.44999978E-03  -7.46470160E-13
   9.52500012E-03  -7.86562981E-13
   9.60000046E-03  -8.28066402E-13
   9.67499986E-03  -8.70979450E-13
   9.75000020E-03  -9.15296918E-13
   9.82499961E-03  -9.61009159E-13
   9.89999995E-03  -1.00810115E-12
   9.97500028E-03  -1.05655285E-12
   1.00499997E-02  -1.10633844E-12
   1.01250000E-02  -1.15742648E-12
   1.02000004E-02  -1.20977891E-12
   1.02749998E-02  -1.26335075E-12
   1.03500001E-02  -1.31809017E-12
   1.04250005E-02  -1.37393851E-12
   1.04999999E-02  -1.43082865E-12
   1.05750002E-02  -1.48868504E-12
   1.06499996E-02  -1.54742397E-12
   1.07249999E-02  -1.60695220E-12
   1.08000003E-02  -1.66716727E-12
   1.08749997E-02  -1.72795697E-12
   1.09500000E-02  -1.78919835E-12
   1.10250004E-02  -1.85075891E-12
   1.10999998E-02  -1.91249447E-12
   1.11750001E-02  -1.97424889E-12
   1.12500004E-02  -2.03585391E-12
   1.13249999E-02  -2.09712976E-12
   1.14000002E-02  -2.15788455E-12
   1.14749996E-02  -2.21791140E-12
   1.15499999E-02  -2.27699088E-12
   1.16250003E-02  -2.33489031E-12
   1.16999997E-02  -2.39136185E-12
   1.17750000E-02  -2.44614138E-12
   1.18500004E-02  -2.49895178E-12
   1.19249998E-02  -2.54950097E-12
   1.20000001E-02  -2.59747931E-12
   1.20750004E-02  -2.64256238E-12
   1.21499998E-02  -2.68440955E-12
   1.22250002E-02  -2.72266346E-12
   1.22999996E-02  -2.75694918E-12
   1.23749999E-02  -2.78687511E-12
   1.24500003E-02  -2.81203229E-12
   1.25249997E-02  -2.83199310E-12
   1.26000000E-02  -2.84631433E-12
   1.26750004E-02  -2.85453367E-12
   1.27499998E-02  -2.85617060E-12
   1.28250001E-02  -2.85072638E-12
   1.29000004E-02  -2.83768495E-12
   1.29749998E-02  -2.81651156E-12
   1.30500002E-02  -2.78665285E-12
   1.31249996E-02  -2.74753701E-12
   1.31999999E-02  -2.69857509E-12
   1.32750003E-02  -2.63916168E-12
   1.33499997E-02  -2.56867227E-12
   1.34250000E-02  -2.48646503E-12
   1.35000004E-02  -2.39188161E-12
   1.35749998E-02  -2.28424506E-12
   1.36500001E-02  -2.16286364E-12
   1.37250004E-02  -2.02702959E-12
   1.37999998E-02  -1.87601996E-12
   1.38750002E-02  -1.70909641E-12
   1.39499996E-02  -1.52550596E-12
   1.40249999E-02  -1.32448132E-12
   1.41000003E-02  -1.10524285E-12
   1.41749997E-02  -8.66999777E-13
   1.42500000E-02  -6.08948330E-13
   1.43250003E-02  -3.30273948E-13
   1.43999998E-02  -3.01534683E-14
   1.44750001E-02   2.92243280E-13
   1.45500004E-02   6.37755148E-13
   1.46249998E-02   1.00722794E-12
   1.47000002E-02   1.40151139E-12
   1.47749996E-02   1.82145900E-12
   1.48499999E-02   2.26792738E-12
   1.49250003E-02   2.74177122E-12
   1.49999997E-02   3.24384595E-12
   1.50750000E-02   3.77500375E-12
   1.51500003E-02   4.33608965E-12
   1.52249997E-02   4.92794824E-12
   1.53000001E-02   5.55141697E-12
   1.53750004E-02   6.20731808E-12
   1.54499998E-02   6.89646300E-12
   1.55250002E-02   7.61965317E-12
   1.55999996E-02   8.37767182E-12
   1.56750008E-02   9.17128526E-12
   1.57500003E-02   1.00012394E-11
   1.58249997E-02   1.08682533E-11
   1.59000009E-02   1.17730253E-11
   1.59750003E-02   1.27162222E-11
   1.60499997E-02   1.36984825E-11
   1.61249992E-02   1.47204124E-11
   1.62000004E-02   1.57825836E-11
   1.62749998E-02   1.68855242E-11
   1.63499992E-02   1.80297235E-11
   1.64250005E-02   1.92156274E-11
   1.64999999E-02   2.04436364E-11
   1.65749993E-02   2.17140975E-11
   1.66500006E-02   2.30273075E-11
   1.67250000E-02   2.43835022E-11
   1.67999994E-02   2.57828620E-11
   1.68750007E-02   2.72255031E-11
   1.69500001E-02   2.87114759E-11
   1.70249995E-02   3.02407613E-11
   1.71000008E-02   3.18132708E-11
   1.71750002E-02   3.34288326E-11
   1.72499996E-02   3.50872040E-11
   1.73250008E-02   3.67880587E-11
   1.74000002E-02   3.85309805E-11
   1.74749997E-02   4.03154662E-11
   1.75500009E-02   4.21409192E-11
   1.76250003E-02   4.40066525E-11
   1.76999997E-02   4.59118681E-11
   1.77749991E-02   4.78556812E-11
   1.78500004E-02   4.98370893E-11
   1.79249998E-02   5.18549856E-11
   1.79999992E-02   5.39081522E-11
   1.80750005E-02   5.59952536E-11
   1.81499999E-02   5.81148359E-11
   1.82249993E-02   6.02653205E-11
   1.83000006E-02   6.24450006E-11
   1.83750000E-02   6.46520615E-11
   1.84499994E-02   6.68845326E-11
   1.85250007E-02   6.91403254E-11
   1.86000001E-02   7.14172124E-11
   1.86749995E-02   7.37128275E-11
   1.87500007E-02   7.60246657E-11
   1.88250002E-02   7.83500695E-11
   1.88999996E-02   8.06862493E-11
   1.89750008E-02   8.30302493E-11
   1.90500002E-02   8.53789886E-11
   1.91249996E-02   8.77292128E-11
   1.92000009E-02   9.00775288E-11
   1.92750003E-02   9.24203769E-11
   1.93499997E-02   9.47540518E-11
   1.94249991E-02   9.70746816E-11
   1.95000004E-02   9.93782487E-11
   1.95749998E-02   1.01660555E-10
   1.96499992E-02   1.03917271E-10
   1.97250005E-02   1.06143885E-10
   1.97999999E-02   1.08335750E-10
   1.98749993E-02   1.10488035E-10
   1.99500006E-02   1.12595752E-10
   2.00250000E-02   1.14653773E-10
   2.00999994E-02   1.16656795E-10
   2.01750007E-02   1.18599380E-10
   2.02500001E-02   1.20475921E-10
   2.03249995E-02   1.22280644E-10
   2.04000007E-02   1.24007651E-10
   2.04750001E-02   1.25650865E-10
   2.05499995E-02   1.27204094E-10
   2.06250008E-02   1.28660985E-10
   2.07000002E-02   1.30015054E-10
   2.07749996E-02   1.31259684E-10
   2.08500009E-02   1.32388114E-10
   2.09250003E-02   1.33393463E-10
   2.09999997E-02   1.34268721E-10
   2.10749991E-02   1.35006742E-10
   2.11500004E-02   1.35600323E-10
   2.12249998E-02   1.36042108E-10
   2.12999992E-02   1.36324646E-10
   2.13750005E-02   1.36440387E-10
   2.14499999E-02   1.36381711E-10
   2.15249993E-02   1.36140918E-10
   2.16000006E-02   1.35710221E-10
   2.16750000E-02   1.35081765E-10
   2.17499994E-02   1.34247641E-10
   2.18250006E-02   1.33199882E-10
   2.19000001E-02   1.31930508E-10
   2.19749995E-02   1.30431499E-10
   2.20500007E-02   1.28694791E-10
   2.21250001E-02   1.26712321E-10
   2.21999995E-02   1.24476054E-10
   2.22750008E-02   1.21977928E-10
   2.23500002E-02   1.19209934E-10
   2.24249996E-02   1.16164051E-10
   2.25000009E-02   1.12832355E-10
   2.25750003E-02   1.09206928E-10
   2.26499997E-02   1.05279979E-10
   2.27249991E-02   1.01043778E-10
   2.28000004E-02   9.64906696E-11
   2.28749998E-02   9.16131129E-11
   2.29499992E-02   8.64037175E-11
   2.30250005E-02   8.08552253E-11
   2.30999999E-02   7.49605170E-11
   2.31749993E-02   6.87126189E-11
   2.32500006E-02   6.21047797E-11
   2.33250000E-02   5.51304245E-11
   2.33999994E-02   4.77832114E-11
   2.34750006E-02   4.00569994E-11
   2.35500000E-02   3.19458973E-11
   2.36249994E-02   2.34443194E-11
   2.37000007E-02   1.45469036E-11
   2.37750001E-02   5.24859886E-12
   2.38499995E-02  -4.45531416E-12
   2.39250008E-02  -1.45692451E-11
   2.40000002E-02  -2.50972576E-11
   2.40749996E-02  -3.60430574E-11
   2.41500009E-02  -4.74099544E-11
   2.42250003E-02  -5.92008803E-11
   2.42999997E-02  -7.14183712E-11
   2.43749991E-02  -8.40644984E-11
   2.44500004E-02  -9.71408717E-11
   2.45249998E-02  -1.10648664E-10
   2.45999992E-02  -1.24588562E-10
   2.46750005E-02  -1.38960746E-10
   2.47499999E-02  -1.53764862E-10
   2.48249993E-02  -1.69000064E-10
   2.49000005E-02  -1.84664922E-10
   2.49749999E-02  -2.00757438E-10
   2.50499994E-02  -2.17275045E-10
   2.51250006E-02  -2.34214537E-10
   2.52000000E-02  -2.51572152E-10
   2.52749994E-02  -2.69343436E-10
   2.53500007E-02  -2.87523311E-10
   2.54250001E-02  -3.06106057E-10
   2.54999995E-02  -3.25085264E-10
   2.55750008E-02  -3.44453771E-10
   2.56500002E-02  -3.64203778E-10
   2.57249996E-02  -3.84326765E-10
   2.58000009E-02  -4.04813488E-10
   2.58750003E-02  -4.25653901E-10
   2.59499997E-02  -4.46837206E-10
   2.60249991E-02  -4.68351913E-10
   2.61000004E-02  -4.90185614E-10
   2.61749998E-02  -5.12325293E-10
   2.62499992E-02  -5.34756961E-10
   2.63250005E-02  -5.57465962E-10
   2.63999999E-02  -5.80436754E-10
   2.64749993E-02  -6.03652961E-10
   2.65500005E-02  -6.27097430E-10
   2.66249999E-02  -6.50752063E-10
   2.66999993E-02  -6.74597933E-10
   2.67750006E-02  -6.98615443E-10
   2.68500000E-02  -7.22783944E-10
   2.69249994E-02  -7.47082063E-10
   2.70000007E-02  -7.71487541E-10
   2.70750001E-02  -7.95977173E-10
   2.71499995E-02  -8.20526924E-10
   2.72250008E-02  -8.45112036E-10
   2.73000002E-02  -8.69706918E-10
   2.73749996E-02  -8.94285035E-10
   2.74500009E-02  -9.18818799E-10
   2.75250003E-02  -9.43280232E-10
   2.75999997E-02  -9.67640301E-10
   2.76749991E-02  -9.91869142E-10
   2.77500004E-02  -1.01593589E-09
   2.78249998E-02  -1.03980946E-09
   2.78999992E-02  -1.06345732E-09
   2.79750004E-02  -1.08684650E-09
   2.80499998E-02  -1.10994336E-09
   2.81249993E-02  -1.13271326E-09
   2.82000005E-02  -1.15512089E-09
   2.82749999E-02  -1.17713050E-09
   2.83499993E-02  -1.19870514E-09
   2.84250006E-02  -1.21980770E-09
   2.85000000E-02  -1.24040000E-09
   2.85749994E-02  -1.26044364E-09
   2.86500007E-02  -1.27989930E-09
   2.87250001E-02  -1.29872724E-09
   2.87999995E-02  -1.31688704E-09
   2.88750008E-02  -1.33433797E-09
   2.89500002E-02  -1.35103850E-09
   2.90249996E-02  -1.36694711E-09
   2.91000009E-02  -1.38202128E-09
   2.91750003E-02  -1.39621870E-09
   2.92499997E-02  -1.40949608E-09
   2.93249991E-02  -1.42181034E-09
   2.94000003E-02  -1.43311796E-09
   2.94749998E-02  -1.44337486E-09
   2.95499992E-02  -1.45253709E-09
   2.96250004E-02  -1.46056056E-09
   2.96999998E-02  -1.46740087E-09
   2.97749992E-02  -1.47301371E-09
   2.98500005E-02  -1.47735457E-09
   2.99249999E-02  -1.48037915E-09
   2.99999993E-02  -1.48204327E-09
   3.00750006E-02  -1.48230250E-09
   3.01500000E-02  -1.48111257E-09
   3.02249994E-02  -1.47842982E-09
   3.03000007E-02  -1.47421086E-09
   3.03750001E-02  -1.46841217E-09
   3.04499995E-02  -1.46099099E-09
   3.05250008E-02  -1.45190482E-09
   3.06000002E-02  -1.44111179E-09
   3.06749996E-02  -1.42857026E-09
   3.07500008E-02  -1.41423939E-09
   3.08250003E-02  -1.39807932E-09
   3.08999997E-02  -1.38005030E-09
   3.09749991E-02  -1.36011369E-09
   3.10500003E-02  -1.33823164E-09
   3.11249997E-02  -1.31436717E-09
   3.11999992E-02  -1.28848421E-09
   3.12750004E-02  -1.26054789E-09
   3.13500017E-02  -1.23052424E-09
   3.14249992E-02  -1.19838039E-09
   3.15000005E-02  -1.16408494E-09
   3.15750018E-02  -1.12760745E-09
   3.16499993E-02  -1.08891918E-09
   3.17250006E-02  -1.04799225E-09
   3.18000019E-02  -1.00480069E-09
   3.18749994E-02  -9.59319957E-10
   3.19500007E-02  -9.11527132E-10
   3.20249982E-02  -8.61400784E-10
   3.20999995E-02  -8.08921263E-10
   3.21750008E-02  -7.54070861E-10
   3.22499983E-02  -6.96833480E-10
   3.23249996E-02  -6.37195130E-10
   3.24000008E-02  -5.75143488E-10
   3.24749984E-02  -5.10668563E-10
   3.25499997E-02  -4.43762221E-10
   3.26250009E-02  -3.74418663E-10
   3.26999985E-02  -3.02634195E-10
   3.27749997E-02  -2.28407487E-10
   3.28500010E-02  -1.51739357E-10
   3.29249986E-02  -7.26330870E-11
   3.29999998E-02   8.90560108E-12
   3.30750011E-02   9.28685254E-11
   3.31499986E-02   1.79244924E-10
   3.32249999E-02   2.68021438E-10
   3.33000012E-02   3.59182128E-10
   3.33749987E-02   4.52708315E-10
   3.34500000E-02   5.48578627E-10
   3.35250013E-02   6.46768861E-10
   3.35999988E-02   7.47252205E-10
   3.36750001E-02   8.49998738E-10
   3.37500013E-02   9.54975543E-10
   3.38249989E-02   1.06214704E-09
   3.39000002E-02   1.17147458E-09
   3.39750014E-02   1.28291633E-09
   3.40499990E-02   1.39642775E-09
   3.41250002E-02   1.51196089E-09
   3.42000015E-02   1.62946501E-09
   3.42749991E-02   1.74888592E-09
   3.43500003E-02   1.87016647E-09
   3.44250016E-02   1.99324646E-09
   3.44999991E-02   2.11806239E-09
   3.45750004E-02   2.24454721E-09
   3.46500017E-02   2.37263098E-09
   3.47249992E-02   2.50224086E-09
   3.48000005E-02   2.63330024E-09
   3.48750018E-02   2.76572965E-09
   3.49499993E-02   2.89944646E-09
   3.50250006E-02   3.03436409E-09
   3.51000018E-02   3.17039373E-09
   3.51749994E-02   3.30744276E-09
   3.52500007E-02   3.44541551E-09
   3.53249982E-02   3.58421315E-09
   3.53999995E-02   3.72373377E-09
   3.54750007E-02   3.86387189E-09
   3.55499983E-02   4.00452027E-09
   3.56249996E-02   4.14556656E-09
   3.57000008E-02   4.28689706E-09
   3.57749984E-02   4.42839365E-09
   3.58499996E-02   4.56993599E-09
   3.59250009E-02   4.71140149E-09
   3.59999985E-02   4.85266405E-09
   3.60749997E-02   4.99359398E-09
   3.61500010E-02   5.13405984E-09
   3.62249985E-02   5.27392707E-09
   3.62999998E-02   5.41305845E-09
   3.63750011E-02   5.55131452E-09
   3.64499986E-02   5.68855318E-09
   3.65249999E-02   5.82462967E-09
   3.66000012E-02   5.95939653E-09
   3.66749987E-02   6.09270456E-09
   3.67500000E-02   6.22440188E-09
   3.68250012E-02   6.35433528E-09
   3.68999988E-02   6.48234932E-09
   3.69750001E-02   6.60828547E-09
   3.70500013E-02   6.73198430E-09
   3.71249989E-02   6.85328549E-09
   3.72000001E-02   6.97202562E-09
   3.72750014E-02   7.08803949E-09
   3.73499990E-02   7.20116233E-09
   3.74250002E-02   7.31122762E-09
   3.75000015E-02   7.41806572E-09
   3.75749990E-02   7.52150786E-09
   3.76500003E-02   7.62138352E-09
   3.77250016E-02   7.71752262E-09
   3.77999991E-02   7.80975284E-09
   3.78750004E-02   7.89790189E-09
   3.79500017E-02   7.98179656E-09
   3.80249992E-02   8.06126543E-09
   3.81000005E-02   8.13613443E-09
   3.81750017E-02   8.20623125E-09
   3.82499993E-02   8.27138269E-09
   3.83250006E-02   8.33141733E-09
   3.84000018E-02   8.38616288E-09
   3.84749994E-02   8.43544701E-09
   3.85500006E-02   8.47910009E-09
   3.86249982E-02   8.51695425E-09
   3.86999995E-02   8.54883897E-09
   3.87750007E-02   8.57458815E-09
   3.88499983E-02   8.59403837E-09
   3.89249995E-02   8.60702354E-09
   3.90000008E-02   8.61338290E-09
   3.90749983E-02   8.61295568E-09
   3.91499996E-02   8.60558469E-09
   3.92250009E-02   8.59111449E-09
   3.92999984E-02   8.56939231E-09
   3.93749997E-02   8.54026805E-09
   3.94500010E-02   8.50359516E-09
   3.95249985E-02   8.45922976E-09
   3.95999998E-02   8.40703063E-09
   3.96750011E-02   8.34686098E-09
   3.97499986E-02   8.27858759E-09
   3.98249999E-02   8.20207990E-09
   3.99000011E-02   8.11721268E-09
   3.99749987E-02   8.02386424E-09
   4.00500000E-02   7.92191823E-09
   4.01250012E-02   7.81126008E-09
   4.01999988E-02   7.69178410E-09
   4.02750000E-02   7.56338725E-09
   4.03500013E-02   7.42597051E-09
   4.04249988E-02   7.27944283E-09
   4.05000001E-02   7.12371762E-09
   4.05750014E-02   6.95871272E-09
   4.06499989E-02   6.78435352E-09
   4.07250002E-02   6.60057031E-09
   4.08000015E-02   6.40730091E-09
   4.08749990E-02   6.20448803E-09
   4.09500003E-02   5.99208150E-09
   4.10250016E-02   5.77003822E-09
   4.10999991E-02   5.53832180E-09
   4.11750004E-02   5.29690380E-09
   4.12500016E-02   5.04576114E-09
   4.13249992E-02   4.78487872E-09
   4.14000005E-02   4.51424986E-09
   4.14750017E-02   4.23387592E-09
   4.15499993E-02   3.94376398E-09
   4.16250005E-02   3.64393182E-09
   4.17000018E-02   3.33440320E-09
   4.17749994E-02   3.01521075E-09
   4.18500006E-02   2.68639666E-09
   4.19249982E-02   2.34801001E-09
   4.19999994E-02   2.00010941E-09
   4.20750007E-02   1.64276159E-09
   4.21499982E-02   1.27604305E-09
   4.22249995E-02   9.00038877E-10
   4.23000008E-02   5.14843168E-10
   4.23749983E-02   1.20559979E-10
   4.24499996E-02  -2.82698642E-10
   4.25250009E-02  -6.94810431E-10
   4.25999984E-02  -1.11564313E-09
   4.26749997E-02  -1.54505586E-09
   4.27500010E-02  -1.98289807E-09
   4.28249985E-02  -2.42900899E-09
   4.28999998E-02  -2.88321833E-09
   4.29750010E-02  -3.34534600E-09
   4.30499986E-02  -3.81520282E-09
   4.31249999E-02  -4.29258851E-09
   4.32000011E-02  -4.77729278E-09
   4.32749987E-02  -5.26909671E-09
   4.33499999E-02  -5.76777115E-09
   4.34250012E-02  -6.27307539E-09
   4.34999987E-02  -6.78476031E-09
   4.35750000E-02  -7.30256744E-09
   4.36500013E-02  -7.82622678E-09
   4.37249988E-02  -8.35545855E-09
   4.38000001E-02  -8.88997587E-09
   4.38750014E-02  -9.42947764E-09
   4.39499989E-02  -9.97365568E-09
   4.40250002E-02  -1.05221938E-08
   4.41000015E-02  -1.10747616E-08
   4.41749990E-02  -1.16310233E-08
   4.42500003E-02  -1.21906298E-08
   4.43250015E-02  -1.27532269E-08
   4.43999991E-02  -1.33184486E-08
   4.44750004E-02  -1.38859209E-08
   4.45500016E-02  -1.44552583E-08
   4.46249992E-02  -1.50260693E-08
   4.47000004E-02  -1.55979514E-08
   4.47750017E-02  -1.61704961E-08
   4.48499992E-02  -1.67432841E-08
   4.49250005E-02  -1.73158874E-08
   4.50000018E-02  -1.78878761E-08
   4.50749993E-02  -1.84588025E-08
   4.51500006E-02  -1.90282154E-08
   4.52249981E-02  -1.95956602E-08
   4.52999994E-02  -2.01606696E-08
   4.53750007E-02  -2.07227728E-08
   4.54499982E-02  -2.12814886E-08
   4.55249995E-02  -2.18363319E-08
   4.56000008E-02  -2.23868124E-08
   4.56749983E-02  -2.29324311E-08
   4.57499996E-02  -2.34726834E-08
   4.58250009E-02  -2.40070595E-08
   4.58999984E-02  -2.45350442E-08
   4.59749997E-02  -2.50561207E-08
   4.60500009E-02  -2.55697614E-08
   4.61249985E-02  -2.60754387E-08
   4.61999997E-02  -2.65726232E-08
   4.62750010E-02  -2.70607732E-08
   4.63499986E-02  -2.75393521E-08
   4.64249998E-02  -2.80078183E-08
   4.65000011E-02  -2.84656299E-08
   4.65749986E-02  -2.89122344E-08
   4.66499999E-02  -2.93470830E-08
   4.67250012E-02  -2.97696268E-08
   4.67999987E-02  -3.01793186E-08
   4.68750000E-02  -3.05756025E-08
   4.69500013E-02  -3.09579278E-08
   4.70249988E-02  -3.13257402E-08
   4.71000001E-02  -3.16784892E-08
   4.71750014E-02  -3.20156239E-08
   4.72499989E-02  -3.23365974E-08
   4.73250002E-02  -3.26408625E-08
   4.74000014E-02  -3.29278720E-08
   4.74749990E-02  -3.31970931E-08
   4.75500003E-02  -3.34479751E-08
   4.76250015E-02  -3.36799921E-08
   4.76999991E-02  -3.38926078E-08
   4.77750003E-02  -3.40852999E-08
   4.78500016E-02  -3.42575497E-08
   4.79249991E-02  -3.44088384E-08
   4.80000004E-02  -3.45386617E-08
   4.80750017E-02  -3.46465150E-08
   4.81499992E-02  -3.47319045E-08
   4.82250005E-02  -3.47943470E-08
   4.83000018E-02  -3.48333593E-08
   4.83749993E-02  -3.48484726E-08
   4.84500006E-02  -3.48392248E-08
   4.85250019E-02  -3.48051650E-08
   4.85999994E-02  -3.47458560E-08
   4.86750007E-02  -3.46608608E-08
   4.87499982E-02  -3.45497710E-08
   4.88249995E-02  -3.44121709E-08
   4.89000008E-02  -3.42476660E-08
   4.89749983E-02  -3.40558763E-08
   4.90499996E-02  -3.38364323E-08
   4.91250008E-02  -3.35889823E-08
   4.91999984E-02  -3.33131851E-08
   4.92749996E-02  -3.30087104E-08
   4.93500009E-02  -3.26752527E-08
   4.94249985E-02  -3.23125136E-08
   4.94999997E-02  -3.19202194E-08
   4.95750010E-02  -3.14981001E-08
   4.96499985E-02  -3.10459214E-08
   4.97249998E-02  -3.05634522E-08
   4.98000011E-02  -3.00504901E-08
   4.98749986E-02  -2.95068361E-08
   4.99499999E-02  -2.89323268E-08
   5.00250012E-02  -2.83268129E-08
   5.00999987E-02  -2.76901595E-08
   5.01750000E-02  -2.70222600E-08
   5.02500013E-02  -2.63230238E-08
   5.03249988E-02  -2.55923833E-08
   5.04000001E-02  -2.48302943E-08
   5.04750013E-02  -2.40367317E-08
   5.05499989E-02  -2.32117010E-08
   5.06250001E-02  -2.23552181E-08
   5.07000014E-02  -2.14673310E-08
   5.07749990E-02  -2.05481108E-08
   5.08500002E-02  -1.95976497E-08
   5.09250015E-02  -1.86160669E-08
   5.09999990E-02  -1.76035027E-08
   5.10750003E-02  -1.65601275E-08
   5.11500016E-02  -1.54861350E-08
   5.12249991E-02  -1.43817456E-08
   5.13000004E-02  -1.32472016E-08
   5.13750017E-02  -1.20827766E-08
   5.14499992E-02  -1.08887672E-08
   5.15250005E-02  -9.66549774E-09
   5.16000018E-02  -8.41332248E-09
   5.16749993E-02  -7.13261983E-09
   5.17500006E-02  -5.82379434E-09
   5.18250018E-02  -4.48727855E-09
   5.18999994E-02  -3.12353210E-09
   5.19750006E-02  -1.73304404E-09
   5.20499982E-02  -3.16330961E-10
   5.21249995E-02   1.12606335E-09
   5.22000007E-02   2.59356581E-09
   5.22749983E-02   4.08557987E-09
   5.23499995E-02   5.60147795E-09
   5.24250008E-02   7.14060056E-09
   5.24999984E-02   8.70226557E-09
   5.25749996E-02   1.02857616E-08
   5.26500009E-02   1.18903509E-08
   5.27249984E-02   1.35152689E-08
   5.27999997E-02   1.51597170E-08
   5.28750010E-02   1.68228738E-08
   5.29499985E-02   1.85038953E-08
   5.30249998E-02   2.02019041E-08
   5.31000011E-02   2.19159944E-08
   5.31749986E-02   2.36452387E-08
   5.32499999E-02   2.53886832E-08
   5.33250012E-02   2.71453402E-08
   5.33999987E-02   2.89142097E-08
   5.34750000E-02   3.06942560E-08
   5.35500012E-02   3.24844223E-08
   5.36249988E-02   3.42836231E-08
   5.37000000E-02   3.60907535E-08
   5.37750013E-02   3.79046838E-08
   5.38499989E-02   3.97242594E-08
   5.39250001E-02   4.15482972E-08
   5.40000014E-02   4.33756071E-08
   5.40749989E-02   4.52049633E-08
   5.41500002E-02   4.70351154E-08
   5.42250015E-02   4.88648126E-08
   5.42999990E-02   5.06927691E-08
   5.43750003E-02   5.25176773E-08
   5.44500016E-02   5.43382157E-08
   5.45249991E-02   5.61530449E-08
   5.46000004E-02   5.79608077E-08
   5.46750017E-02   5.97601328E-08
   5.47499992E-02   6.15496205E-08
   5.48250005E-02   6.33278674E-08
   5.49000017E-02   6.50934595E-08
   5.49749993E-02   6.68449616E-08
   5.50500005E-02   6.85809312E-08
   5.51250018E-02   7.02999046E-08
   5.51999994E-02   7.20004110E-08
   5.52750006E-02   7.36809724E-08
   5.53499982E-02   7.53401039E-08
   5.54249994E-02   7.69763133E-08
   5.55000007E-02   7.85880871E-08
   5.55749983E-02   8.01739262E-08
   5.56499995E-02   8.17323027E-08
   5.57250008E-02   8.32617104E-08
   5.57999983E-02   8.47606216E-08
   5.58749996E-02   8.62275087E-08
   5.59500009E-02   8.76608510E-08
   5.60249984E-02   8.90591210E-08
   5.60999997E-02   9.04208051E-08
   5.61750010E-02   9.17443685E-08
   5.62499985E-02   9.30282980E-08
   5.63249998E-02   9.42710869E-08
   5.64000010E-02   9.54712291E-08
   5.64749986E-02   9.66272324E-08
   5.65499999E-02   9.77375905E-08
   5.66250011E-02   9.88008324E-08
   5.66999987E-02   9.98154803E-08
   5.67749999E-02   1.00780071E-07
   5.68500012E-02   1.01693175E-07
   5.69249988E-02   1.02553358E-07
   5.70000000E-02   1.03359206E-07
   5.70750013E-02   1.04109318E-07
   5.71499988E-02   1.04802318E-07
   5.72250001E-02   1.05436861E-07
   5.73000014E-02   1.06011598E-07
   5.73749989E-02   1.06525206E-07
   5.74500002E-02   1.06976408E-07
   5.75250015E-02   1.07363931E-07
   5.75999990E-02   1.07686532E-07
   5.76750003E-02   1.07943002E-07
   5.77500015E-02   1.08132156E-07
   5.78249991E-02   1.08252834E-07
   5.79000004E-02   1.08303908E-07
   5.79750016E-02   1.08284304E-07
   5.80499992E-02   1.08192964E-07
   5.81250004E-02   1.08028871E-07
   5.82000017E-02   1.07791024E-07
   5.82749993E-02   1.07478492E-07
   5.83500005E-02   1.07090351E-07
   5.84250018E-02   1.06625748E-07
   5.84999993E-02   1.06083853E-07
   5.85750006E-02   1.05463869E-07
   5.86499982E-02   1.04765071E-07
   5.87249994E-02   1.03986764E-07
   5.88000007E-02   1.03128293E-07
   5.88749982E-02   1.02189055E-07
   5.89499995E-02   1.01168489E-07
   5.90250008E-02   1.00066096E-07
   5.90999983E-02   9.88814151E-08
   5.91749996E-02   9.76140484E-08
   5.92500009E-02   9.62636477E-08
   5.93249984E-02   9.48299146E-08
   5.93999997E-02   9.33126074E-08
   5.94750009E-02   9.17115344E-08
   5.95499985E-02   9.00265604E-08
   5.96249998E-02   8.82576074E-08
   5.97000010E-02   8.64046612E-08
   5.97749986E-02   8.44677643E-08
   5.98499998E-02   8.24470163E-08
   5.99250011E-02   8.03425735E-08
   5.99999987E-02   7.81546632E-08
   6.00749999E-02   7.58835625E-08
   6.01500012E-02   7.35296197E-08
   6.02249987E-02   7.10932397E-08
   6.03000000E-02   6.85748915E-08
   6.03750013E-02   6.59751080E-08
   6.04499988E-02   6.32944932E-08
   6.05250001E-02   6.05337078E-08
   6.06000014E-02   5.76934873E-08
   6.06749989E-02   5.47746097E-08
   6.07500002E-02   5.17779455E-08
   6.08250014E-02   4.87044183E-08
   6.08999990E-02   4.55550122E-08
   6.09750003E-02   4.23307895E-08
   6.10500015E-02   3.90328765E-08
   6.11249991E-02   3.56624597E-08
   6.12000003E-02   3.22207931E-08
   6.12750016E-02   2.87092021E-08
   6.13499992E-02   2.51290704E-08
   6.14250004E-02   2.14818527E-08
   6.15000017E-02   1.77690715E-08
   6.15749992E-02   1.39923237E-08
   6.16500005E-02   1.01532551E-08
   6.17250018E-02   6.25357677E-09
   6.17999993E-02   2.29507702E-09
   6.18750006E-02  -1.72040482E-09
   6.19499981E-02  -5.79095971E-09
   6.20249994E-02  -9.91460780E-09
   6.21000007E-02  -1.40893208E-08
   6.21749982E-02  -1.83130009E-08
   6.22499995E-02  -2.25834835E-08
   6.23250008E-02  -2.68985492E-08
   6.23999983E-02  -3.12559294E-08
   6.24749996E-02  -3.56532865E-08
   6.25500008E-02  -4.00882243E-08
   6.26249984E-02  -4.45582948E-08
   6.27000034E-02  -4.90609864E-08
   6.27750009E-02  -5.35937374E-08
   6.28499985E-02  -5.81539439E-08
   6.29250035E-02  -6.27389340E-08
   6.30000010E-02  -6.73459724E-08
   6.30749986E-02  -7.19723161E-08
   6.31500036E-02  -7.66151373E-08
   6.32250011E-02  -8.12715726E-08
   6.32999986E-02  -8.59387157E-08
   6.33750036E-02  -9.06136108E-08
   6.34500012E-02  -9.52932666E-08
   6.35249987E-02  -9.99746419E-08
   6.36000037E-02  -1.04654674E-07
   6.36750013E-02  -1.09330259E-07
   6.37499988E-02  -1.13998219E-07
   6.38249964E-02  -1.18655393E-07
   6.39000013E-02  -1.23298562E-07
   6.39749989E-02  -1.27924494E-07
   6.40499964E-02  -1.32529891E-07
   6.41250014E-02  -1.37111456E-07
   6.41999990E-02  -1.41665865E-07