   0.00000000       0.00000000    
   7.50000036E-05   0.00000000    
   1.50000007E-04   0.00000000    
   2.24999996E-04   0.00000000    
   3.00000014E-04  -1.03798495E-22
   3.75000003E-04  -1.12987954E-21
   4.49999992E-04  -6.60530417E-21
   5.24999981E-04  -2.76474263E-20
   6.00000028E-04  -9.30118522E-20
   6.75000018E-04  -2.67493408E-19
   7.50000007E-04  -6.82899789E-19
   8.24999996E-04  -1.58696596E-18
   8.99999985E-04  -3.41682958E-18
   9.74999974E-04  -6.90503740E-18
   1.04999996E-03  -1.32274783E-17
   1.12499995E-03  -2.42041451E-17
   1.20000006E-03  -4.25652055E-17
   1.27500005E-03  -7.22964590E-17
   1.35000004E-03  -1.19079889E-16
   1.42500002E-03  -1.90846754E-16
   1.50000001E-03  -2.98462303E-16
   1.57500000E-03  -4.56562882E-16
   1.64999999E-03  -6.84567793E-16
   1.72499998E-03  -1.00789054E-15
   1.79999997E-03  -1.45937403E-15
   1.87499996E-03  -2.08097847E-15
   1.94999995E-03  -2.92574815E-15
   2.02500005E-03  -4.06009234E-15
   2.09999993E-03  -5.56640407E-15
   2.17500003E-03  -7.54605559E-15
   2.24999990E-03  -1.01228027E-14
   2.32500001E-03  -1.34466336E-14
   2.40000011E-03  -1.76980877E-14
   2.47499999E-03  -2.30930997E-14
   2.55000009E-03  -2.98883842E-14
   2.62499996E-03  -3.83874214E-14
   2.70000007E-03  -4.89470321E-14
   2.77499994E-03  -6.19846785E-14
   2.85000005E-03  -7.79863709E-14
   2.92499992E-03  -9.75153863E-14
   3.00000003E-03  -1.21221718E-13
   3.07499990E-03  -1.49852326E-13
   3.15000000E-03  -1.84262206E-13
   3.22500011E-03  -2.25426340E-13
   3.29999998E-03  -2.74452553E-13
   3.37500009E-03  -3.32595225E-13
   3.44999996E-03  -4.01270055E-13
   3.52500007E-03  -4.82069625E-13
   3.59999994E-03  -5.76779997E-13
   3.67500004E-03  -6.87398543E-13
   3.74999992E-03  -8.16152484E-13
   3.82500002E-03  -9.65518355E-13
   3.89999989E-03  -1.13824282E-12
   3.97500023E-03  -1.33736446E-12
   4.05000011E-03  -1.56623629E-12
   4.12499998E-03  -1.82854946E-12
   4.19999985E-03  -2.12835782E-12
   4.27500019E-03  -2.47010377E-12
   4.35000006E-03  -2.85864474E-12
   4.42499993E-03  -3.29928034E-12
   4.49999981E-03  -3.79778110E-12
   4.57500014E-03  -4.36041698E-12
   4.65000002E-03  -4.99398786E-12
   4.72499989E-03  -5.70585419E-12
   4.80000023E-03  -6.50396750E-12
   4.87500010E-03  -7.39690253E-12
   4.94999997E-03  -8.39388888E-12
   5.02499985E-03  -9.50484396E-12
   5.10000018E-03  -1.07404077E-11
   5.17500006E-03  -1.21119703E-11
   5.24999993E-03  -1.36317138E-11
   5.32499980E-03  -1.53126366E-11
   5.40000014E-03  -1.71685895E-11
   5.47500001E-03  -1.92143124E-11
   5.54999989E-03  -2.14654579E-11
   5.62500022E-03  -2.39386323E-11
   5.70000010E-03  -2.66514172E-11
   5.77499997E-03  -2.96224087E-11
   5.84999984E-03  -3.28712370E-11
   5.92500018E-03  -3.64185973E-11
   6.00000005E-03  -4.02862847E-11
   6.07499992E-03  -4.44971907E-11
   6.14999980E-03  -4.90753653E-11
   6.22500014E-03  -5.40460073E-11
   6.30000001E-03  -5.94354843E-11
   6.37499988E-03  -6.52713647E-11
   6.45000022E-03  -7.15824205E-11
   6.52500009E-03  -7.83986348E-11
   6.59999996E-03  -8.57512117E-11
   6.67499984E-03  -9.36725697E-11
   6.75000018E-03  -1.02196369E-10
   6.82500005E-03  -1.11357479E-10
   6.89999992E-03  -1.21191959E-10
   6.97499979E-03  -1.31737080E-10
   7.05000013E-03  -1.43031281E-10
   7.12500000E-03  -1.55114199E-10
   7.19999988E-03  -1.68026537E-10
   7.27500021E-03  -1.81810136E-10
   7.35000009E-03  -1.96507852E-10
   7.42499996E-03  -2.12163606E-10
   7.49999983E-03  -2.28822225E-10
   7.57500017E-03  -2.46529436E-10
   7.65000004E-03  -2.65331840E-10
   7.72499992E-03  -2.85276830E-10
   7.79999979E-03  -3.06412395E-10
   7.87500013E-03  -3.28787164E-10
   7.95000046E-03  -3.52450347E-10
   8.02499987E-03  -3.77451459E-10
   8.10000021E-03  -4.03840378E-10
   8.17499962E-03  -4.31667174E-10
   8.24999996E-03  -4.60981947E-10
   8.32500029E-03  -4.91834740E-10
   8.39999970E-03  -5.24275290E-10
   8.47500004E-03  -5.58353197E-10
   8.55000038E-03  -5.94117422E-10
   8.62499978E-03  -6.31616148E-10
   8.70000012E-03  -6.70896783E-10
   8.77500046E-03  -7.12005732E-10
   8.84999987E-03  -7.54988183E-10
   8.92500021E-03  -7.99887656E-10
   8.99999961E-03  -8.46746284E-10
   9.07499995E-03  -8.95604091E-10
   9.15000029E-03  -9.46499212E-10
   9.22499970E-03  -9.99467509E-10
   9.30000003E-03  -1.05454201E-09
   9.37500037E-03  -1.11175291E-09
   9.44999978E-03  -1.17112742E-09
   9.52500012E-03  -1.23268951E-09
   9.60000046E-03  -1.29645927E-09
   9.67499986E-03  -1.36245293E-09
   9.75000020E-03  -1.43068257E-09
   9.82499961E-03  -1.50115564E-09
   9.89999995E-03  -1.57387481E-09
   9.97500028E-03  -1.64883751E-09
   1.00499997E-02  -1.72603587E-09
   1.01250000E-02  -1.80545623E-09
   1.02000004E-02  -1.88707849E-09
   1.02749998E-02  -1.97087657E-09
   1.03500001E-02  -2.05681738E-09
   1.04250005E-02  -2.14486029E-09
   1.04999999E-02  -2.23495800E-09
   1.05750002E-02  -2.32705477E-09
   1.06499996E-02  -2.42108711E-09
   1.07249999E-02  -2.51698262E-09
   1.08000003E-02  -2.61466004E-09
   1.08749997E-02  -2.71402900E-09
   1.09500000E-02  -2.81499002E-09
   1.10250004E-02  -2.91743318E-09
   1.10999998E-02  -3.02123837E-09
   1.11750001E-02  -3.12627502E-09
   1.12500004E-02  -3.23240146E-09
   1.13249999E-02  -3.33946493E-09
   1.14000002E-02  -3.44730133E-09
   1.14749996E-02  -3.55573415E-09
   1.15499999E-02  -3.66457531E-09
   1.16250003E-02  -3.77362364E-09
   1.16999997E-02  -3.88266530E-09
   1.17750000E-02  -3.99147337E-09
   1.18500004E-02  -4.09980894E-09
   1.19249998E-02  -4.20741753E-09
   1.20000001E-02  -4.31403180E-09
   1.20750004E-02  -4.41937109E-09
   1.21499998E-02  -4.52314008E-09
   1.22250002E-02  -4.62502836E-09
   1.22999996E-02  -4.72471129E-09
   1.23749999E-02  -4.82185047E-09
   1.24500003E-02  -4.91609198E-09
   1.25249997E-02  -5.00706721E-09
   1.26000000E-02  -5.09439291E-09
   1.26750004E-02  -5.17766985E-09
   1.27499998E-02  -5.25648547E-09
   1.28250001E-02  -5.33041078E-09
   1.29000004E-02  -5.39900213E-09
   1.29749998E-02  -5.46180257E-09
   1.30500002E-02  -5.51833779E-09
   1.31249996E-02  -5.56812108E-09
   1.31999999E-02  -5.61065017E-09
   1.32750003E-02  -5.64540947E-09
   1.33499997E-02  -5.67186831E-09
   1.34250000E-02  -5.68948355E-09
   1.35000004E-02  -5.69769742E-09
   1.35749998E-02  -5.69593928E-09
   1.36500001E-02  -5.68362690E-09
   1.37250004E-02  -5.66016523E-09
   1.37999998E-02  -5.62494762E-09
   1.38750002E-02  -5.57735635E-09
   1.39499996E-02  -5.51676305E-09
   1.40249999E-02  -5.44252865E-09
   1.41000003E-02  -5.35400613E-09
   1.41749997E-02  -5.25053911E-09
   1.42500000E-02  -5.13146237E-09
   1.43250003E-02  -4.99610531E-09
   1.43999998E-02  -4.84379026E-09
   1.44750001E-02  -4.67383421E-09
   1.45500004E-02  -4.48555015E-09
   1.46249998E-02  -4.27824665E-09
   1.47000002E-02  -4.05123091E-09
   1.47749996E-02  -3.80380838E-09
   1.48499999E-02  -3.53528429E-09
   1.49250003E-02  -3.24496519E-09
   1.49999997E-02  -2.93215918E-09
   1.50750000E-02  -2.59617816E-09
   1.51500003E-02  -2.23633911E-09
   1.52249997E-02  -1.85196491E-09
   1.53000001E-02  -1.44238588E-09
   1.53750004E-02  -1.00694186E-09
   1.54499998E-02  -5.44982448E-10
   1.55250002E-02  -5.58699371E-11
   1.55999996E-02   4.61019778E-10
   1.56750008E-02   1.00629594E-09
   1.57500003E-02   1.58055036E-09
   1.58249997E-02   2.18435670E-09
   1.59000009E-02   2.81826762E-09
   1.59750003E-02   3.48281493E-09
   1.60499997E-02   4.17850421E-09
   1.61249992E-02   4.90581709E-09
   1.62000004E-02   5.66520786E-09
   1.62749998E-02   6.45709886E-09
   1.63499992E-02   7.28188265E-09
   1.64250005E-02   8.13991807E-09
   1.64999999E-02   9.03152930E-09
   1.65749993E-02   9.95700056E-09
   1.66500006E-02   1.09165796E-08
   1.67250000E-02   1.19104699E-08
   1.67999994E-02   1.29388322E-08
   1.68750007E-02   1.40017846E-08
   1.69500001E-02   1.50993955E-08
   1.70249995E-02   1.62316827E-08
   1.71000008E-02   1.73986123E-08
   1.71750002E-02   1.86000975E-08
   1.72499996E-02   1.98359960E-08
   1.73250008E-02   2.11061071E-08
   1.74000002E-02   2.24101715E-08
   1.74749997E-02   2.37478659E-08
   1.75500009E-02   2.51188030E-08
   1.76250003E-02   2.65225317E-08
   1.76999997E-02   2.79585350E-08
   1.77749991E-02   2.94262215E-08
   1.78500004E-02   3.09249302E-08
   1.79249998E-02   3.24539293E-08
   1.79999992E-02   3.40124053E-08
   1.80750005E-02   3.55994771E-08
   1.81499999E-02   3.72141855E-08
   1.82249993E-02   3.88554824E-08
   1.83000006E-02   4.05222416E-08
   1.83750000E-02   4.22132587E-08
   1.84499994E-02   4.39272370E-08
   1.85250007E-02   4.56628015E-08
   1.86000001E-02   4.74184887E-08
   1.86749995E-02   4.91927459E-08
   1.87500007E-02   5.09839317E-08
   1.88250002E-02   5.27903161E-08
   1.88999996E-02   5.46100765E-08
   1.89750008E-02   5.64413014E-08
   1.90500002E-02   5.82819837E-08
   1.91249996E-02   6.01300201E-08
   1.92000009E-02   6.19832150E-08
   1.92750003E-02   6.38393018E-08
   1.93499997E-02   6.56958861E-08
   1.94249991E-02   6.75505092E-08
   1.95000004E-02   6.94005919E-08
   1.95749998E-02   7.12434769E-08
   1.96499992E-02   7.30764143E-08
   1.97250005E-02   7.48965618E-08
   1.97999999E-02   7.67009851E-08
   1.98749993E-02   7.84866501E-08
   1.99500006E-02   8.02504445E-08
   2.00250000E-02   8.19891639E-08
   2.00999994E-02   8.36995113E-08
   2.01750007E-02   8.53781117E-08
   2.02500001E-02   8.70215047E-08
   2.03249995E-02   8.86261375E-08
   2.04000007E-02   9.01883865E-08
   2.04750001E-02   9.17045355E-08
   2.05499995E-02   9.31708186E-08
   2.06250008E-02   9.45833705E-08
   2.07000002E-02   9.59382760E-08
   2.07749996E-02   9.72315277E-08
   2.08500009E-02   9.84590827E-08
   2.09250003E-02   9.96168055E-08
   2.09999997E-02   1.00700525E-07
   2.10749991E-02   1.01706000E-07
   2.11500004E-02   1.02628960E-07
   2.12249998E-02   1.03465069E-07
   2.12999992E-02   1.04209938E-07
   2.13750005E-02   1.04859168E-07
   2.14499999E-02   1.05408319E-07
   2.15249993E-02   1.05852912E-07
   2.16000006E-02   1.06188445E-07
   2.16750000E-02   1.06410404E-07
   2.17499994E-02   1.06514250E-07
   2.18250006E-02   1.06495435E-07
   2.19000001E-02   1.06349425E-07
   2.19749995E-02   1.06071688E-07
   2.20500007E-02   1.05657683E-07
   2.21250001E-02   1.05102899E-07
   2.21999995E-02   1.04402844E-07
   2.22750008E-02   1.03553049E-07
   2.23500002E-02   1.02549066E-07
   2.24249996E-02   1.01386533E-07
   2.25000009E-02   1.00061087E-07
   2.25750003E-02   9.85684494E-08
   2.26499997E-02   9.69043938E-08
   2.27249991E-02   9.50647561E-08
   2.28000004E-02   9.30454647E-08
   2.28749998E-02   9.08425193E-08
   2.29499992E-02   8.84520333E-08
   2.30250005E-02   8.58701839E-08
   2.30999999E-02   8.30932905E-08
   2.31749993E-02   8.01177649E-08
   2.32500006E-02   7.69401396E-08
   2.33250000E-02   7.35571106E-08
   2.33999994E-02   6.99654805E-08
   2.34750006E-02   6.61622153E-08
   2.35500000E-02   6.21444300E-08
   2.36249994E-02   5.79093964E-08
   2.37000007E-02   5.34545705E-08
   2.37750001E-02   4.87775900E-08
   2.38499995E-02   4.38762697E-08
   2.39250008E-02   3.87486274E-08
   2.40000002E-02   3.33928831E-08
   2.40749996E-02   2.78074701E-08
   2.41500009E-02   2.19910419E-08
   2.42250003E-02   1.59424793E-08
   2.42999997E-02   9.66090230E-09
   2.43749991E-02   3.14567439E-09
   2.44500004E-02  -3.60358676E-09
   2.45249998E-02  -1.05870113E-08
   2.45999992E-02  -1.78044637E-08
   2.46750005E-02  -2.52555221E-08
   2.47499999E-02  -3.29394858E-08
   2.48249993E-02  -4.08553760E-08
   2.49000005E-02  -4.90019119E-08
   2.49749999E-02  -5.73775125E-08
   2.50499994E-02  -6.59802808E-08
   2.51250006E-02  -7.48080211E-08
   2.52000000E-02  -8.38581897E-08
   2.52749994E-02  -9.31279587E-08
   2.53500007E-02  -1.02614123E-07
   2.54250001E-02  -1.12313153E-07
   2.54999995E-02  -1.22221195E-07
   2.55750008E-02  -1.32334037E-07
   2.56500002E-02  -1.42647110E-07
   2.57249996E-02  -1.53155497E-07
   2.58000009E-02  -1.63853926E-07
   2.58750003E-02  -1.74736726E-07
   2.59499997E-02  -1.85797930E-07
   2.60249991E-02  -1.97031156E-07
   2.61000004E-02  -2.08429626E-07
   2.61749998E-02  -2.19986219E-07
   2.62499992E-02  -2.31693491E-07
   2.63250005E-02  -2.43543496E-07
   2.63999999E-02  -2.55528022E-07
   2.64749993E-02  -2.67638484E-07
   2.65500005E-02  -2.79865816E-07
   2.66249999E-02  -2.92200639E-07
   2.66999993E-02  -3.04633261E-07
   2.67750006E-02  -3.17153535E-07
   2.68500000E-02  -3.29750947E-07
   2.69249994E-02  -3.42414637E-07
   2.70000007E-02  -3.55133352E-07
   2.70750001E-02  -3.67895495E-07
   2.71499995E-02  -3.80689130E-07
   2.72250008E-02  -3.93501921E-07
   2.73000002E-02  -4.06321249E-07
   2.73749996E-02  -4.19134068E-07
   2.74500009E-02  -4.31927106E-07
   2.75250003E-02  -4.44686606E-07
   2.75999997E-02  -4.57398556E-07
   2.76749991E-02  -4.70048661E-07
   2.77500004E-02  -4.82622340E-07
   2.78249998E-02  -4.95104644E-07
   2.78999992E-02  -5.07480308E-07
   2.79750004E-02  -5.19733817E-07
   2.80499998E-02  -5.31849423E-07
   2.81249993E-02  -5.43811154E-07
   2.82000005E-02  -5.55602696E-07
   2.82749999E-02  -5.67207508E-07
   2.83499993E-02  -5.78608763E-07
   2.84250006E-02  -5.89789579E-07
   2.85000000E-02  -6.00732733E-07
   2.85749994E-02  -6.11420944E-07
   2.86500007E-02  -6.21836648E-07
   2.87250001E-02  -6.31962109E-07
   2.87999995E-02  -6.41779650E-07
   2.88750008E-02  -6.51271137E-07
   2.89500002E-02  -6.60418664E-07
   2.90249996E-02  -6.69203985E-07
   2.91000009E-02  -6.77608909E-07
   2.91750003E-02  -6.85615134E-07
   2.92499997E-02  -6.93204356E-07
   2.93249991E-02  -7.00358157E-07
   2.94000003E-02  -7.07058234E-07
   2.94749998E-02  -7.13286283E-07
   2.95499992E-02  -7.19023888E-07
   2.96250004E-02  -7.24252857E-07
   2.96999998E-02  -7.28955058E-07
   2.97749992E-02  -7.33112358E-07
   2.98500005E-02  -7.36706738E-07
   2.99249999E-02  -7.39720406E-07
   2.99999993E-02  -7.42135740E-07
   3.00750006E-02  -7.43935232E-07
   3.01500000E-02  -7.45101488E-07
   3.02249994E-02  -7.45617513E-07
   3.03000007E-02  -7.45466480E-07
   3.03750001E-02  -7.44631848E-07
   3.04499995E-02  -7.43097303E-07
   3.05250008E-02  -7.40846986E-07
   3.06000002E-02  -7.37865150E-07
   3.06749996E-02  -7.34136677E-07
   3.07500008E-02  -7.29646558E-07
   3.08250003E-02  -7.24380300E-07
   3.08999997E-02  -7.18323975E-07
   3.09749991E-02  -7.11463883E-07
   3.10500003E-02  -7.03787009E-07
   3.11249997E-02  -6.95280619E-07
   3.11999992E-02  -6.85932548E-07
   3.12750004E-02  -6.75731258E-07
   3.13500017E-02  -6.64665833E-07
   3.14249992E-02  -6.52725703E-07
   3.15000005E-02  -6.39901032E-07
   3.15750018E-02  -6.26182612E-07
   3.16499993E-02  -6.11561973E-07
   3.17250006E-02  -5.96031100E-07
   3.18000019E-02  -5.79582888E-07
   3.18749994E-02  -5.62210801E-07
   3.19500007E-02  -5.43909096E-07
   3.20249982E-02  -5.24672714E-07
   3.20999995E-02  -5.04497393E-07
   3.21750008E-02  -4.83379665E-07
   3.22499983E-02  -4.61316858E-07
   3.23249996E-02  -4.38307126E-07
   3.24000008E-02  -4.14349415E-07
   3.24749984E-02  -3.89443585E-07
   3.25499997E-02  -3.63590431E-07
   3.26250009E-02  -3.36791430E-07
   3.26999985E-02  -3.09049113E-07
   3.27749997E-02  -2.80366919E-07
   3.28500010E-02  -2.50749167E-07
   3.29249986E-02  -2.20201102E-07
   3.29999998E-02  -1.88728976E-07
   3.30750011E-02  -1.56339951E-07
   3.31499986E-02  -1.23042213E-07
   3.32249999E-02  -8.88448710E-08
   3.33000012E-02  -5.37580398E-08
   3.33749987E-02  -1.77928481E-08
   3.34500000E-02   1.90385876E-08
   3.35250013E-02   5.67231382E-08
   3.35999988E-02   9.52466621E-08
   3.36750001E-02   1.34593975E-07
   3.37500013E-02   1.74748919E-07
   3.38249989E-02   2.15694271E-07
   3.39000002E-02   2.57411813E-07
   3.39750014E-02   2.99882288E-07
   3.40499990E-02   3.43085418E-07
   3.41250002E-02   3.86999886E-07
   3.42000015E-02   4.31603326E-07
   3.42749991E-02   4.76872458E-07
   3.43500003E-02   5.22782955E-07
   3.44250016E-02   5.69309407E-07
   3.44999991E-02   6.16425496E-07
   3.45750004E-02   6.64103823E-07
   3.46500017E-02   7.12316023E-07
   3.47249992E-02   7.61032823E-07
   3.48000005E-02   8.10223980E-07
   3.48750018E-02   8.59858289E-07
   3.49499993E-02   9.09903633E-07
   3.50250006E-02   9.60326815E-07
   3.51000018E-02   1.01109390E-06
   3.51749994E-02   1.06217010E-06
   3.52500007E-02   1.11351949E-06
   3.53249982E-02   1.16510569E-06
   3.53999995E-02   1.21689106E-06
   3.54750007E-02   1.26883742E-06
   3.55499983E-02   1.32090577E-06
   3.56249996E-02   1.37305619E-06
   3.57000008E-02   1.42524823E-06
   3.57749984E-02   1.47744026E-06
   3.58499996E-02   1.52959069E-06
   3.59250009E-02   1.58165665E-06
   3.59999985E-02   1.63359471E-06
   3.60749997E-02   1.68536098E-06
   3.61500010E-02   1.73691103E-06
   3.62249985E-02   1.78819994E-06
   3.62999998E-02   1.83918166E-06
   3.63750011E-02   1.88981005E-06
   3.64499986E-02   1.94003883E-06
   3.65249999E-02   1.98982048E-06
   3.66000012E-02   2.03910827E-06
   3.66749987E-02   2.08785377E-06
   3.67500000E-02   2.13600879E-06
   3.68250012E-02   2.18352534E-06
   3.68999988E-02   2.23035431E-06
   3.69750001E-02   2.27644705E-06
   3.70500013E-02   2.32175421E-06
   3.71249989E-02   2.36622668E-06
   3.72000001E-02   2.40981467E-06
   3.72750014E-02   2.45246906E-06
   3.73499990E-02   2.49414029E-06
   3.74250002E-02   2.53477901E-06
   3.75000015E-02   2.57433544E-06
   3.75749990E-02   2.61276045E-06
   3.76500003E-02   2.65000449E-06
   3.77250016E-02   2.68601843E-06
   3.77999991E-02   2.72075386E-06
   3.78750004E-02   2.75416164E-06
   3.79500017E-02   2.78619359E-06
   3.80249992E-02   2.81680173E-06
   3.81000005E-02   2.84593807E-06
   3.81750017E-02   2.87355579E-06
   3.82499993E-02   2.89960803E-06
   3.83250006E-02   2.92404843E-06
   3.84000018E-02   2.94683105E-06
   3.84749994E-02   2.96791063E-06
   3.85500006E-02   2.98724308E-06
   3.86249982E-02   3.00478428E-06
   3.86999995E-02   3.02049057E-06
   3.87750007E-02   3.03432012E-06
   3.88499983E-02   3.04623086E-06
   3.89249995E-02   3.05618209E-06
   3.90000008E-02   3.06413381E-06
   3.90749983E-02   3.07004666E-06
   3.91499996E-02   3.07388268E-06
   3.92250009E-02   3.07560481E-06
   3.92999984E-02   3.07517644E-06
   3.93749997E-02   3.07256255E-06
   3.94500010E-02   3.06772927E-06
   3.95249985E-02   3.06064362E-06
   3.95999998E-02   3.05127378E-06
   3.96750011E-02   3.03958905E-06
   3.97499986E-02   3.02556055E-06
   3.98249999E-02   3.00915985E-06
   3.99000011E-02   2.99036037E-06
   3.99749987E-02   2.96913618E-06
   4.00500000E-02   2.94546339E-06
   4.01250012E-02   2.91931951E-06
   4.01999988E-02   2.89068339E-06
   4.02750000E-02   2.85953456E-06
   4.03500013E-02   2.82585484E-06
   4.04249988E-02   2.78962739E-06
   4.05000001E-02   2.75083698E-06
   4.05750014E-02   2.70946975E-06
   4.06499989E-02   2.66551342E-06
   4.07250002E-02   2.61895730E-06
   4.08000015E-02   2.56979229E-06
   4.08749990E-02   2.51801112E-06
   4.09500003E-02   2.46360787E-06
   4.10250016E-02   2.40657891E-06
   4.10999991E-02   2.34692152E-06
   4.11750004E-02   2.28463523E-06
   4.12500016E-02   2.21972118E-06
   4.13249992E-02   2.15218211E-06
   4.14000005E-02   2.08202232E-06
   4.14750017E-02   2.00924865E-06
   4.15499993E-02   1.93386882E-06
   4.16250005E-02   1.85589329E-06
   4.17000018E-02   1.77533354E-06
   4.17749994E-02   1.69220300E-06
   4.18500006E-02   1.60651712E-06
   4.19249982E-02   1.51829295E-06
   4.19999994E-02   1.42754948E-06
   4.20750007E-02   1.33430774E-06
   4.21499982E-02   1.23859036E-06
   4.22249995E-02   1.14042189E-06
   4.23000008E-02   1.03982859E-06
   4.23749983E-02   9.36838660E-07
   4.24499996E-02   8.31482055E-07
   4.25250009E-02   7.23790720E-07
   4.25999984E-02   6.13798306E-07
   4.26749997E-02   5.01540228E-07
   4.27500010E-02   3.87054001E-07
   4.28249985E-02   2.70378621E-07
   4.28999998E-02   1.51555042E-07
   4.29750010E-02   3.06260581E-08
   4.30499986E-02  -9.23638552E-08
   4.31249999E-02  -2.17368409E-07
   4.32000011E-02  -3.44339497E-07
   4.32749987E-02  -4.73227317E-07
   4.33499999E-02  -6.03980197E-07
   4.34250012E-02  -7.36544962E-07
   4.34999987E-02  -8.70866700E-07
   4.35750000E-02  -1.00688862E-06
   4.36500013E-02  -1.14455236E-06
   4.37249988E-02  -1.28379781E-06
   4.38000001E-02  -1.42456338E-06
   4.38750014E-02  -1.56678550E-06
   4.39499989E-02  -1.71039937E-06
   4.40250002E-02  -1.85533861E-06
   4.41000015E-02  -2.00153477E-06
   4.41749990E-02  -2.14891838E-06
   4.42500003E-02  -2.29741818E-06
   4.43250015E-02  -2.44696162E-06
   4.43999991E-02  -2.59747480E-06
   4.44750004E-02  -2.74888157E-06
   4.45500016E-02  -2.90110552E-06
   4.46249992E-02  -3.05406752E-06
   4.47000004E-02  -3.20768800E-06
   4.47750017E-02  -3.36188600E-06
   4.48499992E-02  -3.51657877E-06
   4.49250005E-02  -3.67168286E-06
   4.50000018E-02  -3.82711278E-06
   4.50749993E-02  -3.98278189E-06
   4.51500006E-02  -4.13860334E-06
   4.52249981E-02  -4.29448801E-06
   4.52999994E-02  -4.45034584E-06
   4.53750007E-02  -4.60608635E-06
   4.54499982E-02  -4.76161676E-06
   4.55249995E-02  -4.91684477E-06
   4.56000008E-02  -5.07167533E-06
   4.56749983E-02  -5.22601295E-06
   4.57499996E-02  -5.37976257E-06
   4.58250009E-02  -5.53282553E-06
   4.58999984E-02  -5.68510495E-06
   4.59749997E-02  -5.83650126E-06
   4.60500009E-02  -5.98691531E-06
   4.61249985E-02  -6.13624616E-06
   4.61999997E-02  -6.28439238E-06
   4.62750010E-02  -6.43125168E-06
   4.63499986E-02  -6.57672217E-06
   4.64249998E-02  -6.72069973E-06
   4.65000011E-02  -6.86308022E-06
   4.65749986E-02  -7.00375858E-06
   4.66499999E-02  -7.14263069E-06
   4.67250012E-02  -7.27959014E-06
   4.67999987E-02  -7.41453096E-06
   4.68750000E-02  -7.54734583E-06
   4.69500013E-02  -7.67792790E-06
   4.70249988E-02  -7.80617029E-06
   4.71000001E-02  -7.93196614E-06
   4.71750014E-02  -8.05520540E-06
   4.72499989E-02  -8.17578075E-06
   4.73250002E-02  -8.29358396E-06
   4.74000014E-02  -8.40850498E-06
   4.74749990E-02  -8.52043740E-06
   4.75500003E-02  -8.62927027E-06
   4.76250015E-02  -8.73489535E-06
   4.76999991E-02  -8.83720440E-06
   4.77750003E-02  -8.93608740E-06
   4.78500016E-02  -9.03143791E-06
   4.79249991E-02  -9.12314499E-06
   4.80000004E-02  -9.21110222E-06
   4.80750017E-02  -9.29519956E-06
   4.81499992E-02  -9.37533241E-06
   4.82250005E-02  -9.45139163E-06
   4.83000018E-02  -9.52326991E-06
   4.83749993E-02  -9.59086174E-06
   4.84500006E-02  -9.65405980E-06
   4.85250019E-02  -9.71275949E-06
   4.85999994E-02  -9.76685715E-06
   4.86750007E-02  -9.81624726E-06
   4.87499982E-02  -9.86082614E-06
   4.88249995E-02  -9.90049284E-06
   4.89000008E-02  -9.93514368E-06
   4.89749983E-02  -9.96467861E-06
   4.90499996E-02  -9.98899850E-06
   4.91250008E-02  -1.00080042E-05
   4.91999984E-02  -1.00215975E-05
   4.92749996E-02  -1.00296820E-05
   4.93500009E-02  -1.00321631E-05
   4.94249985E-02  -1.00289471E-05
   4.94999997E-02  -1.00199395E-05
   4.95750010E-02  -1.00050502E-05
   4.96499985E-02  -9.98419000E-06
   4.97249998E-02  -9.95726987E-06
   4.98000011E-02  -9.92420337E-06
   4.98749986E-02  -9.88490592E-06
   4.99499999E-02  -9.83929385E-06
   5.00250012E-02  -9.78728713E-06
   5.00999987E-02  -9.72880662E-06
   5.01750000E-02  -9.66377411E-06
   5.02500013E-02  -9.59211593E-06
   5.03249988E-02  -9.51375750E-06
   5.04000001E-02  -9.42862971E-06
   5.04750013E-02  -9.33666433E-06
   5.05499989E-02  -9.23779498E-06
   5.06250001E-02  -9.13195800E-06
   5.07000014E-02  -9.01909425E-06
   5.07749990E-02  -8.89914372E-06
   5.08500002E-02  -8.77205275E-06
   5.09250015E-02  -8.63776950E-06
   5.09999990E-02  -8.49624212E-06
   5.10750003E-02  -8.34742696E-06
   5.11500016E-02  -8.19127854E-06
   5.12249991E-02  -8.02775867E-06
   5.13000004E-02  -7.85683096E-06
   5.13750017E-02  -7.67846177E-06
   5.14499992E-02  -7.49262153E-06
   5.15250005E-02  -7.29928342E-06
   5.16000018E-02  -7.09842561E-06
   5.16749993E-02  -6.89003036E-06
   5.17500006E-02  -6.67408267E-06
   5.18250018E-02  -6.45057116E-06
   5.18999994E-02  -6.21949039E-06
   5.19750006E-02  -5.98083807E-06
   5.20499982E-02  -5.73461602E-06
   5.21249995E-02  -5.48083017E-06
   5.22000007E-02  -5.21949187E-06
   5.22749983E-02  -4.95061659E-06
   5.23499995E-02  -4.67422387E-06
   5.24250008E-02  -4.39033965E-06
   5.24999984E-02  -4.09899349E-06
   5.25749996E-02  -3.80021947E-06
   5.26500009E-02  -3.49405832E-06
   5.27249984E-02  -3.18055459E-06
   5.27999997E-02  -2.85975830E-06
   5.28750010E-02  -2.53172539E-06
   5.29499985E-02  -2.19651633E-06
   5.30249998E-02  -1.85419788E-06
   5.31000011E-02  -1.50484243E-06
   5.31749986E-02  -1.14852730E-06
   5.32499999E-02  -7.85336113E-07
   5.33250012E-02  -4.15358187E-07
   5.33999987E-02  -3.86886825E-08
   5.34750000E-02   3.44571106E-07
   5.35500012E-02   7.34313858E-07
   5.36249988E-02   1.13042631E-06
   5.37000000E-02   1.53278870E-06
   5.37750013E-02   1.94127529E-06
   5.38499989E-02   2.35575385E-06
   5.39250001E-02   2.77608547E-06
   5.40000014E-02   3.20212530E-06
   5.40749989E-02   3.63372192E-06
   5.41500002E-02   4.07071730E-06
   5.42250015E-02   4.51294727E-06
   5.42999990E-02   4.96024040E-06
   5.43750003E-02   5.41241889E-06
   5.44500016E-02   5.86929673E-06
   5.45249991E-02   6.33068430E-06
   5.46000004E-02   6.79638288E-06
   5.46750017E-02   7.26618782E-06
   5.47499992E-02   7.73988904E-06
   5.48250005E-02   8.21726644E-06
   5.49000017E-02   8.69809537E-06
   5.49749993E-02   9.18214391E-06
   5.50500005E-02   9.66917469E-06
   5.51250018E-02   1.01589412E-05
   5.51999994E-02   1.06511934E-05
   5.52750006E-02   1.11456720E-05
   5.53499982E-02   1.16421115E-05
   5.54249994E-02   1.21402409E-05
   5.55000007E-02   1.26397799E-05
   5.55749983E-02   1.31404449E-05
   5.56499995E-02   1.36419440E-05
   5.57250008E-02   1.41439796E-05
   5.57999983E-02   1.46462498E-05
   5.58749996E-02   1.51484428E-05
   5.59500009E-02   1.56502429E-05
   5.60249984E-02   1.61513271E-05
   5.60999997E-02   1.66513710E-05
   5.61750010E-02   1.71500360E-05
   5.62499985E-02   1.76469857E-05
   5.63249998E-02   1.81418727E-05
   5.64000010E-02   1.86343477E-05
   5.64749986E-02   1.91240542E-05
   5.65499999E-02   1.96106321E-05
   5.66250011E-02   2.00937156E-05
   5.66999987E-02   2.05729339E-05
   5.67749999E-02   2.10479120E-05
   5.68500012E-02   2.15182718E-05
   5.69249988E-02   2.19836274E-05
   5.70000000E-02   2.24435917E-05
   5.70750013E-02   2.28977715E-05
   5.71499988E-02   2.33457758E-05
   5.72250001E-02   2.37872009E-05
   5.73000014E-02   2.42216447E-05
   5.73749989E-02   2.46487070E-05
   5.74500002E-02   2.50679786E-05
   5.75250015E-02   2.54790484E-05
   5.75999990E-02   2.58815053E-05
   5.76750003E-02   2.62749345E-05
   5.77500015E-02   2.66589250E-05
   5.78249991E-02   2.70330565E-05
   5.79000004E-02   2.73969126E-05
   5.79750016E-02   2.77500712E-05
   5.80499992E-02   2.80921195E-05
   5.81250004E-02   2.84226353E-05
   5.82000017E-02   2.87412022E-05
   5.82749993E-02   2.90473999E-05
   5.83500005E-02   2.93408139E-05
   5.84250018E-02   2.96210255E-05
   5.84999993E-02   2.98876221E-05
   5.85750006E-02   3.01401906E-05
   5.86499982E-02   3.03783199E-05
   5.87249994E-02   3.06016045E-05
   5.88000007E-02   3.08096387E-05
   5.88749982E-02   3.10020223E-05
   5.89499995E-02   3.11783588E-05
   5.90250008E-02   3.13382552E-05
   5.90999983E-02   3.14813260E-05
   5.91749996E-02   3.16071819E-05
   5.92500009E-02   3.17154518E-05
   5.93249984E-02   3.18057610E-05
   5.93999997E-02   3.18777420E-05
   5.94750009E-02   3.19310311E-05
   5.95499985E-02   3.19652827E-05
   5.96249998E-02   3.19801475E-05
   5.97000010E-02   3.19752908E-05
   5.97749986E-02   3.19503888E-05
   5.98499998E-02   3.19051105E-05
   5.99250011E-02   3.18391540E-05
   5.99999987E-02   3.17522063E-05
   6.00749999E-02   3.16439837E-05
   6.01500012E-02   3.15142024E-05
   6.02249987E-02   3.13625897E-05
   6.03000000E-02   3.11888871E-05
   6.03750013E-02   3.09928473E-05
   6.04499988E-02   3.07742339E-05
   6.05250001E-02   3.05328213E-05
   6.06000014E-02   3.02683929E-05
   6.06749989E-02   2.99807562E-05
   6.07500002E-02   2.96697235E-05
   6.08250014E-02   2.93351259E-05
   6.08999990E-02   2.89768050E-05
   6.09750003E-02   2.85946171E-05
   6.10500015E-02   2.81884331E-05
   6.11249991E-02   2.77581421E-05
   6.12000003E-02   2.73036494E-05
   6.12750016E-02   2.68248768E-05
   6.13499992E-02   2.63217589E-05
   6.14250004E-02   2.57942465E-05
   6.15000017E-02   2.52423124E-05
   6.15749992E-02   2.46659401E-05
   6.16500005E-02   2.40651352E-05
   6.17250018E-02   2.34399231E-05
   6.17999993E-02   2.27903420E-05
   6.18750006E-02   2.21164501E-05
   6.19499981E-02   2.14183292E-05
   6.20249994E-02   2.06960758E-05
   6.21000007E-02   1.99498045E-05
   6.21749982E-02   1.91796516E-05
   6.22499995E-02   1.83857719E-05
   6.23250008E-02   1.75683399E-05
   6.23999983E-02   1.67275557E-05
   6.24749996E-02   1.58636303E-05
   6.25500008E-02   1.49768011E-05
   6.26249984E-02   1.40673246E-05
   6.27000034E-02   1.31354782E-05
   6.27750009E-02   1.21815592E-05
   6.28499985E-02   1.12058851E-05
   6.29250035E-02   1.02087961E-05
   6.30000010E-02   9.19065224E-06
   6.30749986E-02   8.15183466E-06
   6.31500036E-02   7.09274400E-06
   6.32250011E-02   6.01380452E-06
   6.32999986E-02   4.91546007E-06
   6.33750036E-02   3.79817493E-06
   6.34500012E-02   2.66243524E-06
   6.35249987E-02   1.50874678E-06
   6.36000037E-02   3.37637005E-07
   6.36750013E-02  -8.50346737E-07
   6.37499988E-02  -2.05463698E-06
   6.38249964E-02  -3.27464500E-06
   6.39000013E-02  -4.50976268E-06
   6.39749989E-02  -5.75936201E-06
   6.40499964E-02  -7.02279431E-06
   6.41250014E-02  -8.29939472E-06
   6.41999990E-02  -9.58847613E-06