   0.00000000       0.00000000    
   7.50000036E-05   0.00000000    
   1.50000007E-04   0.00000000    
   2.24999996E-04   0.00000000    
   3.00000014E-04   2.15605152E-23
   3.75000003E-04   2.76723141E-22
   4.49999992E-04   1.82695541E-21
   5.24999981E-04   8.39022058E-21
   6.00000028E-04   3.03605367E-20
   6.75000018E-04   9.25951083E-20
   7.50000007E-04   2.48093412E-19
   8.24999996E-04   6.00334084E-19
   8.99999985E-04   1.33774451E-18
   9.74999974E-04   2.78454575E-18
   1.04999996E-03   5.47304011E-18
   1.12499995E-03   1.02432761E-17
   1.20000006E-03   1.83769423E-17
   1.27500005E-03   3.17732746E-17
   1.35000004E-03   5.31757358E-17
   1.42500002E-03   8.64592337E-17
   1.50000001E-03   1.36988614E-16
   1.57500000E-03   2.12060191E-16
   1.64999999E-03   3.21438971E-16
   1.72499998E-03   4.78005362E-16
   1.79999997E-03   6.98526313E-16
   1.87499996E-03   1.00456593E-15
   1.94999995E-03   1.42355248E-15
   2.02500005E-03   1.99001836E-15
   2.09999993E-03   2.74703330E-15
   2.17500003E-03   3.74784720E-15
   2.24999990E-03   5.05776163E-15
   2.32500001E-03   6.75625581E-15
   2.40000011E-03   8.93937651E-15
   2.47499999E-03   1.17224244E-14
   2.55000009E-03   1.52429525E-14
   2.62499996E-03   1.96640952E-14
   2.70000007E-03   2.51782627E-14
   2.77499994E-03   3.20111911E-14
   2.85000005E-03   4.04264058E-14
   2.92499992E-03   5.07301043E-14
   3.00000003E-03   6.32764918E-14
   3.07499990E-03   7.84735029E-14
   3.15000000E-03   9.67891064E-14
   3.22500011E-03   1.18758044E-13
   3.29999998E-03   1.44989001E-13
   3.37500009E-03   1.76172499E-13
   3.44999996E-03   2.13089190E-13
   3.52500007E-03   2.56618647E-13
   3.59999994E-03   3.07748889E-13
   3.67500004E-03   3.67586278E-13
   3.74999992E-03   4.37366316E-13
   3.82500002E-03   5.18464449E-13
   3.89999989E-03   6.12408019E-13
   3.97500023E-03   7.20888735E-13
   4.05000011E-03   8.45775219E-13
   4.12499998E-03   9.89126424E-13
   4.19999985E-03   1.15320622E-12
   4.27500019E-03   1.34049727E-12
   4.35000006E-03   1.55371625E-12
   4.42499993E-03   1.79582976E-12
   4.49999981E-03   2.07007024E-12
   4.57500014E-03   2.37995214E-12
   4.65000002E-03   2.72928902E-12
   4.72499989E-03   3.12221082E-12
   4.80000023E-03   3.56318187E-12
   4.87500010E-03   4.05701818E-12
   4.94999997E-03   4.60890571E-12
   5.02499985E-03   5.22441899E-12
   5.10000018E-03   5.90954022E-12
   5.17500006E-03   6.67067530E-12
   5.24999993E-03   7.51467378E-12
   5.32499980E-03   8.44885099E-12
   5.40000014E-03   9.48099932E-12
   5.47500001E-03   1.06194107E-11
   5.54999989E-03   1.18728942E-11
   5.62500022E-03   1.32507885E-11
   5.70000010E-03   1.47629860E-11
   5.77499997E-03   1.64199470E-11
   5.84999984E-03   1.82327122E-11
   5.92500018E-03   2.02129147E-11
   6.00000005E-03   2.23728033E-11
   6.07499992E-03   2.47252444E-11
   6.14999980E-03   2.72837412E-11
   6.22500014E-03   3.00624352E-11
   6.30000001E-03   3.30761286E-11
   6.37499988E-03   3.63402745E-11
   6.45000022E-03   3.98709954E-11
   6.52500009E-03   4.36850833E-11
   6.59999996E-03   4.77999931E-11
   6.67499984E-03   5.22338492E-11
   6.75000018E-03   5.70054559E-11
   6.82500005E-03   6.21342630E-11
   6.89999992E-03   6.76403725E-11
   6.97499979E-03   7.35445316E-11
   7.05000013E-03   7.98681121E-11
   7.12500000E-03   8.66331173E-11
   7.19999988E-03   9.38621195E-11
   7.27500021E-03   1.01578274E-10
   7.35000009E-03   1.09805283E-10
   7.42499996E-03   1.18567337E-10
   7.49999983E-03   1.27889144E-10
   7.57500017E-03   1.37795816E-10
   7.65000004E-03   1.48312890E-10
   7.72499992E-03   1.59466260E-10
   7.79999979E-03   1.71282113E-10
   7.87500013E-03   1.83786888E-10
   7.95000046E-03   1.97007258E-10
   8.02499987E-03   2.10969936E-10
   8.10000021E-03   2.25701804E-10
   8.17499962E-03   2.41229703E-10
   8.24999996E-03   2.57580318E-10
   8.32500029E-03   2.74780199E-10
   8.39999970E-03   2.92855740E-10
   8.47500004E-03   3.11832865E-10
   8.55000038E-03   3.31737110E-10
   8.62499978E-03   3.52593427E-10
   8.70000012E-03   3.74426157E-10
   8.77500046E-03   3.97258865E-10
   8.84999987E-03   4.21114199E-10
   8.92500021E-03   4.46013865E-10
   8.99999961E-03   4.71978345E-10
   9.07499995E-03   4.99026986E-10
   9.15000029E-03   5.27177524E-10
   9.22499970E-03   5.56446389E-10
   9.30000003E-03   5.86848070E-10
   9.37500037E-03   6.18395501E-10
   9.44999978E-03   6.51099341E-10
   9.52500012E-03   6.84968193E-10
   9.60000046E-03   7.20008386E-10
   9.67499986E-03   7.56223695E-10
   9.75000020E-03   7.93615118E-10
   9.82499961E-03   8.32181102E-10
   9.89999995E-03   8.71916594E-10
   9.97500028E-03   9.12813769E-10
   1.00499997E-02   9.54861190E-10
   1.01250000E-02   9.98043981E-10
   1.02000004E-02   1.04234321E-09
   1.02749998E-02   1.08773635E-09
   1.03500001E-02   1.13419618E-09
   1.04250005E-02   1.18169174E-09
   1.04999999E-02   1.23018684E-09
   1.05750002E-02   1.27964095E-09
   1.06499996E-02   1.33000855E-09
   1.07249999E-02   1.38123879E-09
   1.08000003E-02   1.43327550E-09
   1.08749997E-02   1.48605694E-09
   1.09500000E-02   1.53951574E-09
   1.10250004E-02   1.59357849E-09
   1.10999998E-02   1.64816560E-09
   1.11750001E-02   1.70319125E-09
   1.12500004E-02   1.75856296E-09
   1.13249999E-02   1.81418158E-09
   1.14000002E-02   1.86994109E-09
   1.14749996E-02   1.92572869E-09
   1.15499999E-02   1.98142436E-09
   1.16250003E-02   2.03689976E-09
   1.16999997E-02   2.09202033E-09
   1.17750000E-02   2.14664309E-09
   1.18500004E-02   2.20061769E-09
   1.19249998E-02   2.25378582E-09
   1.20000001E-02   2.30598074E-09
   1.20750004E-02   2.35702813E-09
   1.21499998E-02   2.40674480E-09
   1.22250002E-02   2.45493981E-09
   1.22999996E-02   2.50141419E-09
   1.23749999E-02   2.54595967E-09
   1.24500003E-02   2.58835997E-09
   1.25249997E-02   2.62839039E-09
   1.26000000E-02   2.66581779E-09
   1.26750004E-02   2.70040013E-09
   1.27499998E-02   2.73188783E-09
   1.28250001E-02   2.76002154E-09
   1.29000004E-02   2.78453482E-09
   1.29749998E-02   2.80515233E-09
   1.30500002E-02   2.82159074E-09
   1.31249996E-02   2.83355850E-09
   1.31999999E-02   2.84075630E-09
   1.32750003E-02   2.84287704E-09
   1.33499997E-02   2.83960633E-09
   1.34250000E-02   2.83062218E-09
   1.35000004E-02   2.81559531E-09
   1.35749998E-02   2.79418977E-09
   1.36500001E-02   2.76606293E-09
   1.37250004E-02   2.73086598E-09
   1.37999998E-02   2.68824407E-09
   1.38750002E-02   2.63783662E-09
   1.39499996E-02   2.57927790E-09
   1.40249999E-02   2.51219801E-09
   1.41000003E-02   2.43622145E-09
   1.41749997E-02   2.35096920E-09
   1.42500000E-02   2.25605934E-09
   1.43250003E-02   2.15110685E-09
   1.43999998E-02   2.03572337E-09
   1.44750001E-02   1.90952010E-09
   1.45500004E-02   1.77210624E-09
   1.46249998E-02   1.62309033E-09
   1.47000002E-02   1.46208146E-09
   1.47749996E-02   1.28868882E-09
   1.48499999E-02   1.10252363E-09
   1.49250003E-02   9.03198683E-10
   1.49999997E-02   6.90329960E-10
   1.50750000E-02   4.63537320E-10
   1.51500003E-02   2.22445187E-10
   1.52249997E-02  -3.33168666E-11
   1.53000001E-02  -3.04113040E-10
   1.53750004E-02  -5.90300087E-10
   1.54499998E-02  -8.92227126E-10
   1.55250002E-02  -1.21023425E-09
   1.55999996E-02  -1.54465107E-09
   1.56750008E-02  -1.89579663E-09
   1.57500003E-02  -2.26397767E-09
   1.58249997E-02  -2.64948885E-09
   1.59000009E-02  -3.05261039E-09
   1.59750003E-02  -3.47360696E-09
   1.60499997E-02  -3.91272703E-09
   1.61249992E-02  -4.37020287E-09
   1.62000004E-02  -4.84624652E-09
   1.62749998E-02  -5.34105160E-09
   1.63499992E-02  -5.85479221E-09
   1.64250005E-02  -6.38761799E-09
   1.64999999E-02  -6.93965729E-09
   1.65749993E-02  -7.51101403E-09
   1.66500006E-02  -8.10176726E-09
   1.67250000E-02  -8.71196804E-09
   1.67999994E-02  -9.34164124E-09
   1.68750007E-02  -9.99078242E-09
   1.69500001E-02  -1.06593578E-08
   1.70249995E-02  -1.13472991E-08
   1.71000008E-02  -1.20545085E-08
   1.71750002E-02  -1.27808546E-08
   1.72499996E-02  -1.35261686E-08
   1.73250008E-02  -1.42902490E-08
   1.74000002E-02  -1.50728550E-08
   1.74749997E-02  -1.58737095E-08
   1.75500009E-02  -1.66924927E-08
   1.76250003E-02  -1.75288477E-08
   1.76999997E-02  -1.83823765E-08
   1.77749991E-02  -1.92526315E-08
   1.78500004E-02  -2.01391295E-08
   1.79249998E-02  -2.10413411E-08
   1.79999992E-02  -2.19586909E-08
   1.80750005E-02  -2.28905535E-08
   1.81499999E-02  -2.38362610E-08
   1.82249993E-02  -2.47950922E-08
   1.83000006E-02  -2.57662816E-08
   1.83750000E-02  -2.67490119E-08
   1.84499994E-02  -2.77424199E-08
   1.85250007E-02  -2.87455801E-08
   1.86000001E-02  -2.97575227E-08
   1.86749995E-02  -3.07772261E-08
   1.87500007E-02  -3.18036157E-08
   1.88250002E-02  -3.28355583E-08
   1.88999996E-02  -3.38718742E-08
   1.89750008E-02  -3.49113236E-08
   1.90500002E-02  -3.59526240E-08
   1.91249996E-02  -3.69944182E-08
   1.92000009E-02  -3.80353100E-08
   1.92750003E-02  -3.90738428E-08
   1.93499997E-02  -4.01085032E-08
   1.94249991E-02  -4.11377279E-08
   1.95000004E-02  -4.21599005E-08
   1.95749998E-02  -4.31733476E-08
   1.96499992E-02  -4.41763426E-08
   1.97250005E-02  -4.51671092E-08
   1.97999999E-02  -4.61438106E-08
   1.98749993E-02  -4.71045603E-08
   1.99500006E-02  -4.80474291E-08
   2.00250000E-02  -4.89704242E-08
   2.00999994E-02  -4.98715131E-08
   2.01750007E-02  -5.07486106E-08
   2.02500001E-02  -5.15995850E-08
   2.03249995E-02  -5.24222585E-08
   2.04000007E-02  -5.32144071E-08
   2.04750001E-02  -5.39737641E-08
   2.05499995E-02  -5.46980239E-08
   2.06250008E-02  -5.53848345E-08
   2.07000002E-02  -5.60318085E-08
   2.07749996E-02  -5.66365230E-08
   2.08500009E-02  -5.71965195E-08
   2.09250003E-02  -5.77093040E-08
   2.09999997E-02  -5.81723612E-08
   2.10749991E-02  -5.85831330E-08
   2.11500004E-02  -5.89390403E-08
   2.12249998E-02  -5.92374967E-08
   2.12999992E-02  -5.94758731E-08
   2.13750005E-02  -5.96515335E-08
   2.14499999E-02  -5.97618168E-08
   2.15249993E-02  -5.98040728E-08
   2.16000006E-02  -5.97756085E-08
   2.16750000E-02  -5.96737593E-08
   2.17499994E-02  -5.94958323E-08
   2.18250006E-02  -5.92391487E-08
   2.19000001E-02  -5.89010263E-08
   2.19749995E-02  -5.84787934E-08
   2.20500007E-02  -5.79697854E-08
   2.21250001E-02  -5.73713557E-08
   2.21999995E-02  -5.66808822E-08
   2.22750008E-02  -5.58957538E-08
   2.23500002E-02  -5.50133912E-08
   2.24249996E-02  -5.40312541E-08
   2.25000009E-02  -5.29468238E-08
   2.25750003E-02  -5.17576240E-08
   2.26499997E-02  -5.04612281E-08
   2.27249991E-02  -4.90552523E-08
   2.28000004E-02  -4.75373625E-08
   2.28749998E-02  -4.59052778E-08
   2.29499992E-02  -4.41567884E-08
   2.30250005E-02  -4.22897486E-08
   2.30999999E-02  -4.03020728E-08
   2.31749993E-02  -3.81917644E-08
   2.32500006E-02  -3.59568979E-08
   2.33250000E-02  -3.35956294E-08
   2.33999994E-02  -3.11062145E-08
   2.34750006E-02  -2.84869959E-08
   2.35500000E-02  -2.57364139E-08
   2.36249994E-02  -2.28530155E-08
   2.37000007E-02  -1.98354595E-08
   2.37750001E-02  -1.66825114E-08
   2.38499995E-02  -1.33930591E-08
   2.39250008E-02  -9.96611238E-09
   2.40000002E-02  -6.40080788E-09
   2.40749996E-02  -2.69641709E-09
   2.41500009E-02   1.14765508E-09
   2.42250003E-02   5.13185849E-09
   2.42999997E-02   9.25649424E-09
   2.43749991E-02   1.35217171E-08
   2.44500004E-02   1.79275226E-08
   2.45249998E-02   2.24737473E-08
   2.45999992E-02   2.71600662E-08
   2.46750005E-02   3.19859765E-08
   2.47499999E-02   3.69508051E-08
   2.48249993E-02   4.20537098E-08
   2.49000005E-02   4.72936641E-08
   2.49749999E-02   5.26694457E-08
   2.50499994E-02   5.81796549E-08
   2.51250006E-02   6.38226894E-08
   2.52000000E-02   6.95967657E-08
   2.52749994E-02   7.54998695E-08
   2.53500007E-02   8.15298264E-08
   2.54250001E-02   8.76842208E-08
   2.54999995E-02   9.39604377E-08
   2.55750008E-02   1.00355663E-07
   2.56500002E-02   1.06866850E-07
   2.57249996E-02   1.13490771E-07
   2.58000009E-02   1.20223930E-07
   2.58750003E-02   1.27062606E-07
   2.59499997E-02   1.34002917E-07
   2.60249991E-02   1.41040687E-07
   2.61000004E-02   1.48171580E-07
   2.61749998E-02   1.55390978E-07
   2.62499992E-02   1.62694050E-07
   2.63250005E-02   1.70075765E-07
   2.63999999E-02   1.77530836E-07
   2.64749993E-02   1.85053736E-07
   2.65500005E-02   1.92638737E-07
   2.66249999E-02   2.00279842E-07
   2.66999993E-02   2.07970885E-07
   2.67750006E-02   2.15705427E-07
   2.68500000E-02   2.23476817E-07
   2.69249994E-02   2.31278136E-07
   2.70000007E-02   2.39102320E-07
   2.70750001E-02   2.46942022E-07
   2.71499995E-02   2.54789711E-07
   2.72250008E-02   2.62637599E-07
   2.73000002E-02   2.70477756E-07
   2.73749996E-02   2.78301968E-07
   2.74500009E-02   2.86101823E-07
   2.75250003E-02   2.93868709E-07
   2.75999997E-02   3.01593872E-07
   2.76749991E-02   3.09268273E-07
   2.77500004E-02   3.16882762E-07
   2.78249998E-02   3.24427958E-07
   2.78999992E-02   3.31894284E-07
   2.79750004E-02   3.39272020E-07
   2.80499998E-02   3.46551275E-07
   2.81249993E-02   3.53721987E-07
   2.82000005E-02   3.60773925E-07
   2.82749999E-02   3.67696771E-07
   2.83499993E-02   3.74479953E-07
   2.84250006E-02   3.81112869E-07
   2.85000000E-02   3.87584720E-07
   2.85749994E-02   3.93884676E-07
   2.86500007E-02   4.00001682E-07
   2.87250001E-02   4.05924624E-07
   2.87999995E-02   4.11642333E-07
   2.88750008E-02   4.17143497E-07
   2.89500002E-02   4.22416775E-07
   2.90249996E-02   4.27450772E-07
   2.91000009E-02   4.32233975E-07
   2.91750003E-02   4.36754874E-07
   2.92499997E-02   4.41001930E-07
   2.93249991E-02   4.44963575E-07
   2.94000003E-02   4.48628185E-07
   2.94749998E-02   4.51984192E-07
   2.95499992E-02   4.55020057E-07
   2.96250004E-02   4.57724184E-07
   2.96999998E-02   4.60085062E-07
   2.97749992E-02   4.62091236E-07
   2.98500005E-02   4.63731283E-07
   2.99249999E-02   4.64993860E-07
   2.99999993E-02   4.65867714E-07
   3.00750006E-02   4.66341731E-07
   3.01500000E-02   4.66404799E-07
   3.02249994E-02   4.66046060E-07
   3.03000007E-02   4.65254658E-07
   3.03750001E-02   4.64020019E-07
   3.04499995E-02   4.62331656E-07
   3.05250008E-02   4.60179280E-07
   3.06000002E-02   4.57552801E-07
   3.06749996E-02   4.54442329E-07
   3.07500008E-02   4.50838172E-07
   3.08250003E-02   4.46730951E-07
   3.08999997E-02   4.42111485E-07
   3.09749991E-02   4.36970794E-07
   3.10500003E-02   4.31300265E-07
   3.11249997E-02   4.25091542E-07
   3.11999992E-02   4.18336555E-07
   3.12750004E-02   4.11027628E-07
   3.13500017E-02   4.03157287E-07
   3.14249992E-02   3.94718512E-07
   3.15000005E-02   3.85704595E-07
   3.15750018E-02   3.76109227E-07
   3.16499993E-02   3.65926468E-07
   3.17250006E-02   3.55150831E-07
   3.18000019E-02   3.43777202E-07
   3.18749994E-02   3.31800805E-07
   3.19500007E-02   3.19217492E-07
   3.20249982E-02   3.06023395E-07
   3.20999995E-02   2.92215248E-07
   3.21750008E-02   2.77790150E-07
   3.22499983E-02   2.62745800E-07
   3.23249996E-02   2.47080294E-07
   3.24000008E-02   2.30792324E-07
   3.24749984E-02   2.13881037E-07
   3.25499997E-02   1.96346207E-07
   3.26250009E-02   1.78188074E-07
   3.26999985E-02   1.59407463E-07
   3.27749997E-02   1.40005795E-07
   3.28500010E-02   1.19985017E-07
   3.29249986E-02   9.93477158E-08
   3.29999998E-02   7.80970240E-08
   3.30750011E-02   5.62367042E-08
   3.31499986E-02   3.37711477E-08
   3.32249999E-02   1.07053575E-08
   3.33000012E-02  -1.29550548E-08
   3.33749987E-02  -3.72038329E-08
   3.34500000E-02  -6.20340543E-08
   3.35250013E-02  -8.74381669E-08
   3.35999988E-02  -1.13407992E-07
   3.36750001E-02  -1.39934684E-07
   3.37500013E-02  -1.67008679E-07
   3.38249989E-02  -1.94619773E-07
   3.39000002E-02  -2.22757137E-07
   3.39750014E-02  -2.51409205E-07
   3.40499990E-02  -2.80563796E-07
   3.41250002E-02  -3.10208009E-07
   3.42000015E-02  -3.40328313E-07
   3.42749991E-02  -3.70910413E-07
   3.43500003E-02  -4.01939445E-07
   3.44250016E-02  -4.33399777E-07
   3.44999991E-02  -4.65275122E-07
   3.45750004E-02  -4.97548513E-07
   3.46500017E-02  -5.30202215E-07
   3.47249992E-02  -5.63218123E-07
   3.48000005E-02  -5.96577252E-07
   3.48750018E-02  -6.30259876E-07
   3.49499993E-02  -6.64245761E-07
   3.50250006E-02  -6.98513986E-07
   3.51000018E-02  -7.33042953E-07
   3.51749994E-02  -7.67810377E-07
   3.52500007E-02  -8.02793522E-07
   3.53249982E-02  -8.37968798E-07
   3.53999995E-02  -8.73312160E-07
   3.54750007E-02  -9.08798881E-07
   3.55499983E-02  -9.44403666E-07
   3.56249996E-02  -9.80100708E-07
   3.57000008E-02  -1.01586340E-06
   3.57749984E-02  -1.05166487E-06
   3.58499996E-02  -1.08747759E-06
   3.59250009E-02  -1.12327325E-06
   3.59999985E-02  -1.15902333E-06
   3.60749997E-02  -1.19469860E-06
   3.61500010E-02  -1.23026962E-06
   3.62249985E-02  -1.26570615E-06
   3.62999998E-02  -1.30097771E-06
   3.63750011E-02  -1.33605329E-06
   3.64499986E-02  -1.37090126E-06
   3.65249999E-02  -1.40548980E-06
   3.66000012E-02  -1.43978673E-06
   3.66749987E-02  -1.47375943E-06
   3.67500000E-02  -1.50737503E-06
   3.68250012E-02  -1.54060001E-06
   3.68999988E-02  -1.57340094E-06
   3.69750001E-02  -1.60574382E-06
   3.70500013E-02  -1.63759444E-06
   3.71249989E-02  -1.66891823E-06
   3.72000001E-02  -1.69968087E-06
   3.72750014E-02  -1.72984733E-06
   3.73499990E-02  -1.75938237E-06
   3.74250002E-02  -1.78825110E-06
   3.75000015E-02  -1.81641815E-06
   3.75749990E-02  -1.84384794E-06
   3.76500003E-02  -1.87050512E-06
   3.77250016E-02  -1.89635398E-06
   3.77999991E-02  -1.92135917E-06
   3.78750004E-02  -1.94548488E-06
   3.79500017E-02  -1.96869541E-06
   3.80249992E-02  -1.99095552E-06
   3.81000005E-02  -2.01222974E-06
   3.81750017E-02  -2.03248283E-06
   3.82499993E-02  -2.05167930E-06
   3.83250006E-02  -2.06978439E-06
   3.84000018E-02  -2.08676283E-06
   3.84749994E-02  -2.10258054E-06
   3.85500006E-02  -2.11720294E-06
   3.86249982E-02  -2.13059593E-06
   3.86999995E-02  -2.14272541E-06
   3.87750007E-02  -2.15355817E-06
   3.88499983E-02  -2.16306125E-06
   3.89249995E-02  -2.17120169E-06
   3.90000008E-02  -2.17794741E-06
   3.90749983E-02  -2.18326636E-06
   3.91499996E-02  -2.18712739E-06
   3.92250009E-02  -2.18949913E-06
   3.92999984E-02  -2.19035178E-06
   3.93749997E-02  -2.18965579E-06
   3.94500010E-02  -2.18738137E-06
   3.95249985E-02  -2.18350056E-06
   3.95999998E-02  -2.17798515E-06
   3.96750011E-02  -2.17080787E-06
   3.97499986E-02  -2.16194258E-06
   3.98249999E-02  -2.15136356E-06
   3.99000011E-02  -2.13904559E-06
   3.99749987E-02  -2.12496457E-06
   4.00500000E-02  -2.10909730E-06
   4.01250012E-02  -2.09142127E-06
   4.01999988E-02  -2.07191511E-06
   4.02750000E-02  -2.05055767E-06
   4.03500013E-02  -2.02732963E-06
   4.04249988E-02  -2.00221189E-06
   4.05000001E-02  -1.97518693E-06
   4.05750014E-02  -1.94623772E-06
   4.06499989E-02  -1.91534900E-06
   4.07250002E-02  -1.88250556E-06
   4.08000015E-02  -1.84769419E-06
   4.08749990E-02  -1.81090252E-06
   4.09500003E-02  -1.77211916E-06
   4.10250016E-02  -1.73133401E-06
   4.10999991E-02  -1.68853830E-06
   4.11750004E-02  -1.64372398E-06
   4.12500016E-02  -1.59688489E-06
   4.13249992E-02  -1.54801546E-06
   4.14000005E-02  -1.49711207E-06
   4.14750017E-02  -1.44417186E-06
   4.15499993E-02  -1.38919370E-06
   4.16250005E-02  -1.33217748E-06
   4.17000018E-02  -1.27312478E-06
   4.17749994E-02  -1.21203811E-06
   4.18500006E-02  -1.14892180E-06
   4.19249982E-02  -1.08378151E-06
   4.19999994E-02  -1.01662397E-06
   4.20750007E-02  -9.47457920E-07
   4.21499982E-02  -8.76293257E-07
   4.22249995E-02  -8.03141290E-07
   4.23000008E-02  -7.28014982E-07
   4.23749983E-02  -6.50928712E-07
   4.24499996E-02  -5.71898340E-07
   4.25250009E-02  -4.90941432E-07
   4.25999984E-02  -4.08076971E-07
   4.26749997E-02  -3.23325480E-07
   4.27500010E-02  -2.36709084E-07
   4.28249985E-02  -1.48251473E-07
   4.28999998E-02  -5.79779211E-08
   4.29750010E-02   3.40847173E-08
   4.30499986E-02   1.27907981E-07
   4.31249999E-02   2.23461825E-07
   4.32000011E-02   3.20714605E-07
   4.32749987E-02   4.19632983E-07
   4.33499999E-02   5.20182084E-07
   4.34250012E-02   6.22325331E-07
   4.34999987E-02   7.26024780E-07
   4.35750000E-02   8.31240641E-07
   4.36500013E-02   9.37931475E-07
   4.37249988E-02   1.04605419E-06
   4.38000001E-02   1.15556429E-06
   4.38750014E-02   1.26641567E-06
   4.39499989E-02   1.37856023E-06
   4.40250002E-02   1.49194875E-06
   4.41000015E-02   1.60653008E-06
   4.41749990E-02   1.72225168E-06
   4.42500003E-02   1.83905922E-06
   4.43250015E-02   1.95689654E-06
   4.43999991E-02   2.07570679E-06
   4.44750004E-02   2.19543085E-06
   4.45500016E-02   2.31600825E-06
   4.46249992E-02   2.43737668E-06
   4.47000004E-02   2.55947270E-06
   4.47750017E-02   2.68223107E-06
   4.48499992E-02   2.80558561E-06
   4.49250005E-02   2.92946788E-06
   4.50000018E-02   3.05380809E-06
   4.50749993E-02   3.17853574E-06
   4.51500006E-02   3.30357807E-06
   4.52249981E-02   3.42886142E-06
   4.52999994E-02   3.55431007E-06
   4.53750007E-02   3.67984831E-06
   4.54499982E-02   3.80539745E-06
   4.55249995E-02   3.93087794E-06
   4.56000008E-02   4.05620995E-06
   4.56749983E-02   4.18131094E-06
   4.57499996E-02   4.30609816E-06
   4.58250009E-02   4.43048657E-06
   4.58999984E-02   4.55439158E-06
   4.59749997E-02   4.67772588E-06
   4.60500009E-02   4.80040262E-06
   4.61249985E-02   4.92233175E-06
   4.61999997E-02   5.04342370E-06
   4.62750010E-02   5.16358705E-06
   4.63499986E-02   5.28273040E-06
   4.64249998E-02   5.40076098E-06
   4.65000011E-02   5.51758421E-06
   4.65749986E-02   5.63310550E-06
   4.66499999E-02   5.74722890E-06
   4.67250012E-02   5.85985890E-06
   4.67999987E-02   5.97089684E-06
   4.68750000E-02   6.08024584E-06
   4.69500013E-02   6.18780723E-06
   4.70249988E-02   6.29348187E-06
   4.71000001E-02   6.39717018E-06
   4.71750014E-02   6.49877165E-06
   4.72499989E-02   6.59818488E-06
   4.73250002E-02   6.69530982E-06
   4.74000014E-02   6.79004415E-06
   4.74749990E-02   6.88228602E-06
   4.75500003E-02   6.97193309E-06
   4.76250015E-02   7.05888306E-06
   4.76999991E-02   7.14303314E-06
   4.77750003E-02   7.22428149E-06
   4.78500016E-02   7.30252532E-06
   4.79249991E-02   7.37766140E-06
   4.80000004E-02   7.44958743E-06
   4.80750017E-02   7.51820062E-06
   4.81499992E-02   7.58339866E-06
   4.82250005E-02   7.64507968E-06
   4.83000018E-02   7.70314182E-06
   4.83749993E-02   7.75748413E-06
   4.84500006E-02   7.80800565E-06
   4.85250019E-02   7.85460634E-06
   4.85999994E-02   7.89718615E-06
   4.86750007E-02   7.93564686E-06
   4.87499982E-02   7.96988934E-06
   4.88249995E-02   7.99981717E-06
   4.89000008E-02   8.02533214E-06
   4.89749983E-02   8.04634055E-06
   4.90499996E-02   8.06274693E-06
   4.91250008E-02   8.07445758E-06
   4.91999984E-02   8.08138066E-06
   4.92749996E-02   8.08342520E-06
   4.93500009E-02   8.08050208E-06
   4.94249985E-02   8.07252309E-06
   4.94999997E-02   8.05940090E-06
   4.95750010E-02   8.04105093E-06
   4.96499985E-02   8.01738952E-06
   4.97249998E-02   7.98833480E-06
   4.98000011E-02   7.95380856E-06
   4.98749986E-02   7.91373168E-06
   4.99499999E-02   7.86802957E-06
   5.00250012E-02   7.81662857E-06
   5.00999987E-02   7.75945591E-06
   5.01750000E-02   7.69644248E-06
   5.02500013E-02   7.62752279E-06
   5.03249988E-02   7.55263227E-06
   5.04000001E-02   7.47170861E-06
   5.04750013E-02   7.38469271E-06
   5.05499989E-02   7.29152907E-06
   5.06250001E-02   7.19216314E-06
   5.07000014E-02   7.08654488E-06
   5.07749990E-02   6.97462656E-06
   5.08500002E-02   6.85636269E-06
   5.09250015E-02   6.73171280E-06
   5.09999990E-02   6.60063870E-06
   5.10750003E-02   6.46310536E-06
   5.11500016E-02   6.31908142E-06
   5.12249991E-02   6.16853913E-06
   5.13000004E-02   6.01145484E-06
   5.13750017E-02   5.84780673E-06
   5.14499992E-02   5.67757934E-06
   5.15250005E-02   5.50075902E-06
   5.16000018E-02   5.31733758E-06
   5.16749993E-02   5.12730958E-06
   5.17500006E-02   4.93067546E-06
   5.18250018E-02   4.72743750E-06
   5.18999994E-02   4.51760388E-06
   5.19750006E-02   4.30118735E-06
   5.20499982E-02   4.07820471E-06
   5.21249995E-02   3.84867644E-06
   5.22000007E-02   3.61262869E-06
   5.22749983E-02   3.37009214E-06
   5.23499995E-02   3.12110183E-06
   5.24250008E-02   2.86569843E-06
   5.24999984E-02   2.60392653E-06
   5.25749996E-02   2.33583660E-06
   5.26500009E-02   2.06148320E-06
   5.27249984E-02   1.78092682E-06
   5.27999997E-02   1.49423295E-06
   5.28750010E-02   1.20147195E-06
   5.29499985E-02   9.02719705E-07
   5.30249998E-02   5.98057625E-07
   5.31000011E-02   2.87572078E-07
   5.31749986E-02  -2.86448216E-08
   5.32499999E-02  -3.50495611E-07
   5.33250012E-02  -6.77877210E-07
   5.33999987E-02  -1.01068088E-06
   5.34750000E-02  -1.34879235E-06
   5.35500012E-02  -1.69209193E-06
   5.36249988E-02  -2.04045386E-06
   5.37000000E-02  -2.39374731E-06
   5.37750013E-02  -2.75183493E-06
   5.38499989E-02  -3.11457438E-06
   5.39250001E-02  -3.48181720E-06
   5.40000014E-02  -3.85340854E-06
   5.40749989E-02  -4.22918947E-06
   5.41500002E-02  -4.60899309E-06
   5.42250015E-02  -4.99264797E-06
   5.42999990E-02  -5.37997767E-06
   5.43750003E-02  -5.77079845E-06
   5.44500016E-02  -6.16492207E-06
   5.45249991E-02  -6.56215343E-06
   5.46000004E-02  -6.96229336E-06
   5.46750017E-02  -7.36513448E-06
   5.47499992E-02  -7.77046625E-06
   5.48250005E-02  -8.17807177E-06
   5.49000017E-02  -8.58772819E-06
   5.49749993E-02  -8.99920633E-06
   5.50500005E-02  -9.41227336E-06
   5.51250018E-02  -9.82669098E-06
   5.51999994E-02  -1.02422146E-05
   5.52750006E-02  -1.06585940E-05
   5.53499982E-02  -1.10755736E-05
   5.54249994E-02  -1.14928953E-05
   5.55000007E-02  -1.19102933E-05
   5.55749983E-02  -1.23274995E-05
   5.56499995E-02  -1.27442372E-05
   5.57250008E-02  -1.31602283E-05
   5.57999983E-02  -1.35751889E-05
   5.58749996E-02  -1.39888298E-05
   5.59500009E-02  -1.44008591E-05
   5.60249984E-02  -1.48109812E-05
   5.60999997E-02  -1.52188932E-05
   5.61750010E-02  -1.56242913E-05
   5.62499985E-02  -1.60268646E-05
   5.63249998E-02  -1.64263056E-05
   5.64000010E-02  -1.68222941E-05
   5.64749986E-02  -1.72145119E-05
   5.65499999E-02  -1.76026388E-05
   5.66250011E-02  -1.79863455E-05
   5.66999987E-02  -1.83653065E-05
   5.67749999E-02  -1.87391925E-05
   5.68500012E-02  -1.91076670E-05
   5.69249988E-02  -1.94703989E-05
   5.70000000E-02  -1.98270463E-05
   5.70750013E-02  -2.01772746E-05
   5.71499988E-02  -2.05207398E-05
   5.72250001E-02  -2.08571018E-05
   5.73000014E-02  -2.11860188E-05
   5.73749989E-02  -2.15071450E-05
   5.74500002E-02  -2.18201367E-05
   5.75250015E-02  -2.21246464E-05
   5.75999990E-02  -2.24203304E-05
   5.76750003E-02  -2.27068449E-05
   5.77500015E-02  -2.29838442E-05
   5.78249991E-02  -2.32509847E-05
   5.79000004E-02  -2.35079242E-05
   5.79750016E-02  -2.37543190E-05
   5.80499992E-02  -2.39898272E-05
   5.81250004E-02  -2.42141141E-05
   5.82000017E-02  -2.44268413E-05
   5.82749993E-02  -2.46276722E-05
   5.83500005E-02  -2.48162778E-05
   5.84250018E-02  -2.49923287E-05
   5.84999993E-02  -2.51554975E-05
   5.85750006E-02  -2.53054641E-05
   5.86499982E-02  -2.54419101E-05
   5.87249994E-02  -2.55645191E-05
   5.88000007E-02  -2.56729836E-05
   5.88749982E-02  -2.57669963E-05
   5.89499995E-02  -2.58462587E-05
   5.90250008E-02  -2.59104745E-05
   5.90999983E-02  -2.59593562E-05
   5.91749996E-02  -2.59926219E-05
   5.92500009E-02  -2.60099932E-05
   5.93249984E-02  -2.60111992E-05
   5.93999997E-02  -2.59959779E-05
   5.94750009E-02  -2.59640728E-05
   5.95499985E-02  -2.59152348E-05
   5.96249998E-02  -2.58492255E-05
   5.97000010E-02  -2.57658139E-05
   5.97749986E-02  -2.56647745E-05
   5.98499998E-02  -2.55458926E-05
   5.99250011E-02  -2.54089646E-05
   5.99999987E-02  -2.52537920E-05
   6.00749999E-02  -2.50801877E-05
   6.01500012E-02  -2.48879787E-05
   6.02249987E-02  -2.46769996E-05
   6.03000000E-02  -2.44470957E-05
   6.03750013E-02  -2.41981197E-05
   6.04499988E-02  -2.39299425E-05
   6.05250001E-02  -2.36424403E-05
   6.06000014E-02  -2.33355040E-05
   6.06749989E-02  -2.30090391E-05
   6.07500002E-02  -2.26629581E-05
   6.08250014E-02  -2.22971921E-05
   6.08999990E-02  -2.19116791E-05
   6.09750003E-02  -2.15063756E-05
   6.10500015E-02  -2.10812486E-05
   6.11249991E-02  -2.06362802E-05
   6.12000003E-02  -2.01714665E-05
   6.12750016E-02  -1.96868168E-05
   6.13499992E-02  -1.91823528E-05
   6.14250004E-02  -1.86581146E-05
   6.15000017E-02  -1.81141550E-05
   6.15749992E-02  -1.75505447E-05
   6.16500005E-02  -1.69673640E-05
   6.17250018E-02  -1.63647128E-05
   6.17999993E-02  -1.57427057E-05
   6.18750006E-02  -1.51014719E-05
   6.19499981E-02  -1.44411579E-05
   6.20249994E-02  -1.37619263E-05
   6.21000007E-02  -1.30639537E-05
   6.21749982E-02  -1.23474329E-05
   6.22499995E-02  -1.16125766E-05
   6.23250008E-02  -1.08596087E-05
   6.23999983E-02  -1.00887737E-05
   6.24749996E-02  -9.30033093E-06
   6.25500008E-02  -8.49455500E-06
   6.26249984E-02  -7.67173788E-06
   6.27000034E-02  -6.83219014E-06
   6.27750009E-02  -5.97623648E-06
   6.28499985E-02  -5.10421978E-06
   6.29250035E-02  -4.21649747E-06
   6.30000010E-02  -3.31344495E-06
   6.30749986E-02  -2.39545375E-06
   6.31500036E-02  -1.46293189E-06
   6.32250011E-02  -5.16303828E-07
   6.32999986E-02   4.43990189E-07
   6.33750036E-02   1.41749342E-06
   6.34500012E-02   2.40373402E-06
   6.35249987E-02   3.40222277E-06
   6.36000037E-02   4.41245629E-06
   6.36750013E-02   5.43391479E-06
   6.37499988E-02   6.46606259E-06
   6.38249964E-02   7.50835079E-06
   6.39000013E-02   8.56021325E-06
   6.39749989E-02   9.62107060E-06
   6.40499964E-02   1.06903308E-05
   6.41250014E-02   1.17673826E-05
   6.41999990E-02   1.28516058E-05