   0.00000000       0.00000000    
   7.50000036E-05   0.00000000    
   1.50000007E-04   0.00000000    
   2.24999996E-04   0.00000000    
   3.00000014E-04  -1.51824614E-25
   3.75000003E-04  -1.52445043E-24
   4.49999992E-04  -8.28086540E-24
   5.24999981E-04  -3.24110855E-23
   6.00000028E-04  -1.02501778E-22
   6.75000018E-04  -2.78337138E-22
   7.50000007E-04  -6.73358492E-22
   8.24999996E-04  -1.48717845E-21
   8.99999985E-04  -3.05036078E-21
   9.74999974E-04  -5.88344004E-21
   1.04999996E-03  -1.07721001E-20
   1.12499995E-03  -1.88595419E-20
   1.20000006E-03  -3.17564395E-20
   1.27500005E-03  -5.16675719E-20
   1.35000004E-03  -8.15337713E-20
   1.42500002E-03  -1.25183756E-19
   1.50000001E-03  -1.87490477E-19
   1.57500000E-03  -2.74524159E-19
   1.64999999E-03  -3.93687126E-19
   1.72499998E-03  -5.53819185E-19
   1.79999997E-03  -7.65251565E-19
   1.87499996E-03  -1.03978867E-18
   1.94999995E-03  -1.39058356E-18
   2.02500005E-03  -1.83187667E-18
   2.09999993E-03  -2.37856364E-18
   2.17500003E-03  -3.04553322E-18
   2.24999990E-03  -3.84671658E-18
   2.32500001E-03  -4.79380695E-18
   2.40000011E-03  -5.89459120E-18
   2.47499999E-03  -7.15078532E-18
   2.55000009E-03  -8.55524866E-18
   2.62499996E-03  -1.00885619E-17
   2.70000007E-03  -1.17148644E-17
   2.77499994E-03  -1.33767935E-17
   2.85000005E-03  -1.49893531E-17
   2.92499992E-03  -1.64325484E-17
   3.00000003E-03  -1.75430450E-17
   3.07499990E-03  -1.81040190E-17
   3.15000000E-03  -1.78334102E-17
   3.22500011E-03  -1.63708076E-17
   3.29999998E-03  -1.32615589E-17
   3.37500009E-03  -7.93934652E-18
   3.44999996E-03   2.93832441E-19
   3.52500007E-03   1.22908650E-17
   3.59999994E-03   2.90842725E-17
   3.67500004E-03   5.19149240E-17
   3.74999992E-03   8.22650972E-17
   3.82500002E-03   1.21893666E-16
   3.89999989E-03   1.72874581E-16
   3.97500023E-03   2.37641552E-16
   4.05000011E-03   3.19035092E-16
   4.12499998E-03   4.20356776E-16
   4.19999985E-03   5.45425055E-16
   4.27500019E-03   6.98637063E-16
   4.35000006E-03   8.85040692E-16
   4.42499993E-03   1.11040524E-15
   4.49999981E-03   1.38130078E-15
   4.57500014E-03   1.70518521E-15
   4.65000002E-03   2.09049997E-15
   4.72499989E-03   2.54676380E-15
   4.80000023E-03   3.08468033E-15
   4.87500010E-03   3.71625245E-15
   4.94999997E-03   4.45490245E-15
   5.02499985E-03   5.31560058E-15
   5.10000018E-03   6.31499485E-15
   5.17500006E-03   7.47155735E-15
   5.24999993E-03   8.80573673E-15
   5.32499980E-03   1.03401090E-14
   5.40000014E-03   1.20995489E-14
   5.47500001E-03   1.41114029E-14
   5.54999989E-03   1.64056679E-14
   5.62500022E-03   1.90151799E-14
   5.70000010E-03   2.19757938E-14
   5.77499997E-03   2.53266121E-14
   5.84999984E-03   2.91101643E-14
   5.92500018E-03   3.33726475E-14
   6.00000005E-03   3.81641265E-14
   6.07499992E-03   4.35387573E-14
   6.14999980E-03   4.95550324E-14
   6.22500014E-03   5.62759983E-14
   6.30000001E-03   6.37694921E-14
   6.37499988E-03   7.21083756E-14
   6.45000022E-03   8.13708232E-14
   6.52500009E-03   9.16404539E-14
   6.59999996E-03   1.03006701E-13
   6.67499984E-03   1.15564960E-13
   6.75000018E-03   1.29416863E-13
   6.82500005E-03   1.44670463E-13
   6.89999992E-03   1.61440550E-13
   6.97499979E-03   1.79848785E-13
   7.05000013E-03   2.00023890E-13
   7.12500000E-03   2.22101973E-13
   7.19999988E-03   2.46226596E-13
   7.27500021E-03   2.72549019E-13
   7.35000009E-03   3.01228281E-13
   7.42499996E-03   3.32431456E-13
   7.49999983E-03   3.66333672E-13
   7.57500017E-03   4.03118186E-13
   7.65000004E-03   4.42976683E-13
   7.72499992E-03   4.86109091E-13
   7.79999979E-03   5.32723605E-13
   7.87500013E-03   5.83036766E-13
   7.95000046E-03   6.37273437E-13
   8.02499987E-03   6.95666723E-13
   8.10000021E-03   7.58457804E-13
   8.17499962E-03   8.25895775E-13
   8.24999996E-03   8.98237376E-13
   8.32500029E-03   9.75746936E-13
   8.39999970E-03   1.05869599E-12
   8.47500004E-03   1.14736280E-12
   8.55000038E-03   1.24203230E-12
   8.62499978E-03   1.34299505E-12
   8.70000012E-03   1.45054747E-12
   8.77500046E-03   1.56499065E-12
   8.84999987E-03   1.68663000E-12
   8.92500021E-03   1.81577453E-12
   8.99999961E-03   1.95273593E-12
   9.07499995E-03   2.09782777E-12
   9.15000029E-03   2.25136489E-12
   9.22499970E-03   2.41366172E-12
   9.30000003E-03   2.58503245E-12
   9.37500037E-03   2.76578782E-12
   9.44999978E-03   2.95623595E-12
   9.52500012E-03   3.15668065E-12
   9.60000046E-03   3.36741854E-12
   9.67499986E-03   3.58873933E-12
   9.75000020E-03   3.82092361E-12
   9.82499961E-03   4.06424113E-12
   9.89999995E-03   4.31894798E-12
   9.97500028E-03   4.58528744E-12
   1.00499997E-02   4.86348505E-12
   1.01250000E-02   5.15374982E-12
   1.02000004E-02   5.45626912E-12
   1.02749998E-02   5.77120816E-12
   1.03500001E-02   6.09870704E-12
   1.04250005E-02   6.43887938E-12
   1.04999999E-02   6.79180974E-12
   1.05750002E-02   7.15755016E-12
   1.06499996E-02   7.53611670E-12
   1.07249999E-02   7.92749113E-12
   1.08000003E-02   8.33161491E-12
   1.08749997E-02   8.74838396E-12
   1.09500000E-02   9.17765169E-12
   1.10250004E-02   9.61922295E-12
   1.10999998E-02   1.00728514E-11
   1.11750001E-02   1.05382361E-11
   1.12500004E-02   1.10150188E-11
   1.13249999E-02   1.15027814E-11
   1.14000002E-02   1.20010443E-11
   1.14749996E-02   1.25092593E-11
   1.15499999E-02   1.30268105E-11
   1.16250003E-02   1.35530103E-11
   1.16999997E-02   1.40870935E-11
   1.17750000E-02   1.46282188E-11
   1.18500004E-02   1.51754616E-11
   1.19249998E-02   1.57278184E-11
   1.20000001E-02   1.62841893E-11
   1.20750004E-02   1.68433947E-11
   1.21499998E-02   1.74041545E-11
   1.22250002E-02   1.79650982E-11
   1.22999996E-02   1.85247529E-11
   1.23749999E-02   1.90815506E-11
   1.24500003E-02   1.96338171E-11
   1.25249997E-02   2.01797745E-11
   1.26000000E-02   2.07175353E-11
   1.26750004E-02   2.12451081E-11
   1.27499998E-02   2.17603904E-11
   1.28250001E-02   2.22611651E-11
   1.29000004E-02   2.27451044E-11
   1.29749998E-02   2.32097657E-11
   1.30500002E-02   2.36525920E-11
   1.31249996E-02   2.40709102E-11
   1.31999999E-02   2.44619342E-11
   1.32750003E-02   2.48227602E-11
   1.33499997E-02   2.51503662E-11
   1.34250000E-02   2.54416210E-11
   1.35000004E-02   2.56932843E-11
   1.35749998E-02   2.59019924E-11
   1.36500001E-02   2.60642809E-11
   1.37250004E-02   2.61765713E-11
   1.37999998E-02   2.62351842E-11
   1.38750002E-02   2.62363378E-11
   1.39499996E-02   2.61761481E-11
   1.40249999E-02   2.60506443E-11
   1.41000003E-02   2.58557568E-11
   1.41749997E-02   2.55873326E-11
   1.42500000E-02   2.52411408E-11
   1.43250003E-02   2.48128705E-11
   1.43999998E-02   2.42981520E-11
   1.44750001E-02   2.36925427E-11
   1.45500004E-02   2.29915548E-11
   1.46249998E-02   2.21906504E-11
   1.47000002E-02   2.12852583E-11
   1.47749996E-02   2.02707798E-11
   1.48499999E-02   1.91425868E-11
   1.49250003E-02   1.78960527E-11
   1.49999997E-02   1.65265527E-11
   1.50750000E-02   1.50294742E-11
   1.51500003E-02   1.34002288E-11
   1.52249997E-02   1.16342665E-11
   1.53000001E-02   9.72709240E-12
   1.53750004E-02   7.67427181E-12
   1.54499998E-02   5.47145012E-12
   1.55250002E-02   3.11436727E-12
   1.55999996E-02   5.98874954E-13
   1.56750008E-02  -2.07905438E-12
   1.57500003E-02  -4.92330786E-12
   1.58249997E-02  -7.93760717E-12
   1.59000009E-02  -1.11255016E-11
   1.59750003E-02  -1.44903464E-11
   1.60499997E-02  -1.80352851E-11
   1.61249992E-02  -2.17632284E-11
   1.62000004E-02  -2.56768409E-11
   1.62749998E-02  -2.97785060E-11
   1.63499992E-02  -3.40703230E-11
   1.64250005E-02  -3.85540905E-11
   1.64999999E-02  -4.32312589E-11
   1.65749993E-02  -4.81029348E-11
   1.66500006E-02  -5.31698470E-11
   1.67250000E-02  -5.84323354E-11
   1.67999994E-02  -6.38903028E-11
   1.68750007E-02  -6.95432392E-11
   1.69500001E-02  -7.53901594E-11
   1.70249995E-02  -8.14295922E-11
   1.71000008E-02  -8.76595671E-11
   1.71750002E-02  -9.40775929E-11
   1.72499996E-02  -1.00680617E-10
   1.73250008E-02  -1.07465023E-10
   1.74000002E-02  -1.14426593E-10
   1.74749997E-02  -1.21560498E-10
   1.75500009E-02  -1.28861297E-10
   1.76250003E-02  -1.36322870E-10
   1.76999997E-02  -1.43938431E-10
   1.77749991E-02  -1.51700486E-10
   1.78500004E-02  -1.59600846E-10
   1.79249998E-02  -1.67630590E-10
   1.79999992E-02  -1.75780043E-10
   1.80750005E-02  -1.84038770E-10
   1.81499999E-02  -1.92395530E-10
   1.82249993E-02  -2.00838304E-10
   1.83000006E-02  -2.09354256E-10
   1.83750000E-02  -2.17929730E-10
   1.84499994E-02  -2.26550251E-10
   1.85250007E-02  -2.35200442E-10
   1.86000001E-02  -2.43864151E-10
   1.86749995E-02  -2.52524279E-10
   1.87500007E-02  -2.61162952E-10
   1.88250002E-02  -2.69761324E-10
   1.88999996E-02  -2.78299717E-10
   1.89750008E-02  -2.86757590E-10
   1.90500002E-02  -2.95113489E-10
   1.91249996E-02  -3.03345099E-10
   1.92000009E-02  -3.11429244E-10
   1.92750003E-02  -3.19341831E-10
   1.93499997E-02  -3.27057992E-10
   1.94249991E-02  -3.34551886E-10
   1.95000004E-02  -3.41796980E-10
   1.95749998E-02  -3.48765794E-10
   1.96499992E-02  -3.55430074E-10
   1.97250005E-02  -3.61760844E-10
   1.97999999E-02  -3.67728265E-10
   1.98749993E-02  -3.73301889E-10
   1.99500006E-02  -3.78450382E-10
   2.00250000E-02  -3.83141879E-10
   2.00999994E-02  -3.87343740E-10
   2.01750007E-02  -3.91022825E-10
   2.02500001E-02  -3.94145327E-10
   2.03249995E-02  -3.96676914E-10
   2.04000007E-02  -3.98582750E-10
   2.04750001E-02  -3.99827615E-10
   2.05499995E-02  -4.00375788E-10
   2.06250008E-02  -4.00191297E-10
   2.07000002E-02  -3.99237782E-10
   2.07749996E-02  -3.97478717E-10
   2.08500009E-02  -3.94877298E-10
   2.09250003E-02  -3.91396721E-10
   2.09999997E-02  -3.87000071E-10
   2.10749991E-02  -3.81650461E-10
   2.11500004E-02  -3.75311088E-10
   2.12249998E-02  -3.67945341E-10
   2.12999992E-02  -3.59516861E-10
   2.13750005E-02  -3.49989537E-10
   2.14499999E-02  -3.39327760E-10
   2.15249993E-02  -3.27496308E-10
   2.16000006E-02  -3.14460680E-10
   2.16750000E-02  -3.00186931E-10
   2.17499994E-02  -2.84641977E-10
   2.18250006E-02  -2.67793482E-10
   2.19000001E-02  -2.49610166E-10
   2.19749995E-02  -2.30061775E-10
   2.20500007E-02  -2.09119208E-10
   2.21250001E-02  -1.86754626E-10
   2.21999995E-02  -1.62941549E-10
   2.22750008E-02  -1.37655026E-10
   2.23500002E-02  -1.10871666E-10
   2.24249996E-02  -8.25697635E-11
   2.25000009E-02  -5.27294423E-11
   2.25750003E-02  -2.13327724E-11
   2.26499997E-02   1.16361920E-11
   2.27249991E-02   4.61912071E-11
   2.28000004E-02   8.23437568E-11
   2.28749998E-02   1.20102955E-10
   2.29499992E-02   1.59475433E-10
   2.30250005E-02   2.00465144E-10
   2.30999999E-02   2.43073367E-10
   2.31749993E-02   2.87298491E-10
   2.32500006E-02   3.33136019E-10
   2.33250000E-02   3.80578291E-10
   2.33999994E-02   4.29614455E-10
   2.34750006E-02   4.80230411E-10
   2.35500000E-02   5.32408728E-10
   2.36249994E-02   5.86128313E-10
   2.37000007E-02   6.41364573E-10
   2.37750001E-02   6.98088920E-10
   2.38499995E-02   7.56269380E-10
   2.39250008E-02   8.15869705E-10
   2.40000002E-02   8.76849759E-10
   2.40749996E-02   9.39165301E-10
   2.41500009E-02   1.00276798E-09
   2.42250003E-02   1.06760489E-09
   2.42999997E-02   1.13361920E-09
   2.43749991E-02   1.20074928E-09
   2.44500004E-02   1.26892907E-09
   2.45249998E-02   1.33808820E-09
   2.45999992E-02   1.40815137E-09
   2.46750005E-02   1.47903889E-09
   2.47499999E-02   1.55066615E-09
   2.48249993E-02   1.62294389E-09
   2.49000005E-02   1.69577796E-09
   2.49749999E-02   1.76906967E-09
   2.50499994E-02   1.84271520E-09
   2.51250006E-02   1.91660599E-09
   2.52000000E-02   1.99062877E-09
   2.52749994E-02   2.06466577E-09
   2.53500007E-02   2.13859330E-09
   2.54250001E-02   2.21228369E-09
   2.54999995E-02   2.28560482E-09
   2.55750008E-02   2.35841924E-09
   2.56500002E-02   2.43058507E-09
   2.57249996E-02   2.50195598E-09
   2.58000009E-02   2.57238053E-09
   2.58750003E-02   2.64170374E-09
   2.59499997E-02   2.70976552E-09
   2.60249991E-02   2.77640200E-09
   2.61000004E-02   2.84144464E-09
   2.61749998E-02   2.90472157E-09
   2.62499992E-02   2.96605651E-09
   2.63250005E-02   3.02526937E-09
   2.63999999E-02   3.08217696E-09
   2.64749993E-02   3.13659254E-09
   2.65500005E-02   3.18832605E-09
   2.66249999E-02   3.23718452E-09
   2.66999993E-02   3.28297189E-09
   2.67750006E-02   3.32548966E-09
   2.68500000E-02   3.36453709E-09
   2.69249994E-02   3.39991102E-09
   2.70000007E-02   3.43140649E-09
   2.70750001E-02   3.45881723E-09
   2.71499995E-02   3.48193518E-09
   2.72250008E-02   3.50055096E-09
   2.73000002E-02   3.51445539E-09
   2.73749996E-02   3.52343776E-09
   2.74500009E-02   3.52728802E-09
   2.75250003E-02   3.52579566E-09
   2.75999997E-02   3.51875129E-09
   2.76749991E-02   3.50594620E-09
   2.77500004E-02   3.48717299E-09
   2.78249998E-02   3.46222540E-09
   2.78999992E-02   3.43089979E-09
   2.79750004E-02   3.39299455E-09
   2.80499998E-02   3.34831096E-09
   2.81249993E-02   3.29665362E-09
   2.82000005E-02   3.23783023E-09
   2.82749999E-02   3.17165316E-09
   2.83499993E-02   3.09793902E-09
   2.84250006E-02   3.01650971E-09
   2.85000000E-02   2.92719182E-09
   2.85749994E-02   2.82981816E-09
   2.86500007E-02   2.72422795E-09
   2.87250001E-02   2.61026667E-09
   2.87999995E-02   2.48778753E-09
   2.88750008E-02   2.35665132E-09
   2.89500002E-02   2.21672658E-09
   2.90249996E-02   2.06789141E-09
   2.91000009E-02   1.91003235E-09
   2.91750003E-02   1.74304537E-09
   2.92499997E-02   1.56683710E-09
   2.93249991E-02   1.38132472E-09
   2.94000003E-02   1.18643628E-09
   2.94749998E-02   9.82111170E-10
   2.95499992E-02   7.68301200E-10
   2.96250004E-02   5.44970402E-10
   2.96999998E-02   3.12095932E-10
   2.97749992E-02   6.96684654E-11
   2.98500005E-02  -1.82307655E-10
   2.99249999E-02  -4.43813652E-10
   2.99999993E-02  -7.14815762E-10
   3.00750006E-02  -9.95265204E-10
   3.01500000E-02  -1.28509747E-09
   3.02249994E-02  -1.58423219E-09
   3.03000007E-02  -1.89257210E-09
   3.03750001E-02  -2.21000329E-09
   3.04499995E-02  -2.53639421E-09
   3.05250008E-02  -2.87159652E-09
   3.06000002E-02  -3.21544369E-09
   3.06749996E-02  -3.56774987E-09
   3.07500008E-02  -3.92831190E-09
   3.08250003E-02  -4.29690639E-09
   3.08999997E-02  -4.67329242E-09
   3.09749991E-02  -5.05720799E-09
   3.10500003E-02  -5.44837198E-09
   3.11249997E-02  -5.84648374E-09
   3.11999992E-02  -6.25122221E-09
   3.12750004E-02  -6.66224587E-09
   3.13500017E-02  -7.07919323E-09
   3.14249992E-02  -7.50168194E-09
   3.15000005E-02  -7.92930877E-09
   3.15750018E-02  -8.36165004E-09
   3.16499993E-02  -8.79826079E-09
   3.17250006E-02  -9.23867560E-09
   3.18000019E-02  -9.68240954E-09
   3.18749994E-02  -1.01289546E-08
   3.19500007E-02  -1.05777849E-08
   3.20249982E-02  -1.10283516E-08
   3.20999995E-02  -1.14800871E-08
   3.21750008E-02  -1.19324026E-08
   3.22499983E-02  -1.23846906E-08
   3.23249996E-02  -1.28363231E-08
   3.24000008E-02  -1.32866518E-08
   3.24749984E-02  -1.37350096E-08
   3.25499997E-02  -1.41807126E-08
   3.26250009E-02  -1.46230574E-08
   3.26999985E-02  -1.50613229E-08
   3.27749997E-02  -1.54947681E-08
   3.28500010E-02  -1.59226410E-08
   3.29249986E-02  -1.63441651E-08
   3.29999998E-02  -1.67585554E-08
   3.30750011E-02  -1.71650072E-08
   3.31499986E-02  -1.75627033E-08
   3.32249999E-02  -1.79508106E-08
   3.33000012E-02  -1.83284872E-08
   3.33749987E-02  -1.86948750E-08
   3.34500000E-02  -1.90491054E-08
   3.35250013E-02  -1.93903027E-08
   3.35999988E-02  -1.97175751E-08
   3.36750001E-02  -2.00300256E-08
   3.37500013E-02  -2.03267501E-08
   3.38249989E-02  -2.06068371E-08
   3.39000002E-02  -2.08693667E-08
   3.39750014E-02  -2.11134221E-08
   3.40499990E-02  -2.13380709E-08
   3.41250002E-02  -2.15423892E-08
   3.42000015E-02  -2.17254499E-08
   3.42749991E-02  -2.18863203E-08
   3.43500003E-02  -2.20240750E-08
   3.44250016E-02  -2.21377849E-08
   3.44999991E-02  -2.22265353E-08
   3.45750004E-02  -2.22894041E-08
   3.46500017E-02  -2.23254872E-08
   3.47249992E-02  -2.23338805E-08
   3.48000005E-02  -2.23136940E-08
   3.48750018E-02  -2.22640484E-08
   3.49499993E-02  -2.21840732E-08
   3.50250006E-02  -2.20729177E-08
   3.51000018E-02  -2.19297416E-08
   3.51749994E-02  -2.17537242E-08
   3.52500007E-02  -2.15440643E-08
   3.53249982E-02  -2.12999804E-08
   3.53999995E-02  -2.10207105E-08
   3.54750007E-02  -2.07055191E-08
   3.55499983E-02  -2.03536956E-08
   3.56249996E-02  -1.99645545E-08
   3.57000008E-02  -1.95374401E-08
   3.57749984E-02  -1.90717255E-08
   3.58499996E-02  -1.85668174E-08
   3.59250009E-02  -1.80221544E-08
   3.59999985E-02  -1.74372108E-08
   3.60749997E-02  -1.68114997E-08
   3.61500010E-02  -1.61445683E-08
   3.62249985E-02  -1.54360045E-08
   3.62999998E-02  -1.46854395E-08
   3.63750011E-02  -1.38925493E-08
   3.64499986E-02  -1.30570532E-08
   3.65249999E-02  -1.21787158E-08
   3.66000012E-02  -1.12573506E-08
   3.66749987E-02  -1.02928199E-08
   3.67500000E-02  -9.28503852E-09
   3.68250012E-02  -8.23397173E-09
   3.68999988E-02  -7.13964221E-09
   3.69750001E-02  -6.00212369E-09
   3.70500013E-02  -4.82154983E-09
   3.71249989E-02  -3.59811136E-09
   3.72000001E-02  -2.33205832E-09
   3.72750014E-02  -1.02370201E-09
   3.73499990E-02   3.26586036E-10
   3.74250002E-02   1.71836889E-09
   3.75000015E-02   3.15114668E-09
   3.75749990E-02   4.62435379E-09
   3.76500003E-02   6.13735907E-09
   3.77250016E-02   7.68946418E-09
   3.77999991E-02   9.27990218E-09
   3.78750004E-02   1.09078355E-08
   3.79500017E-02   1.25723609E-08
   3.80249992E-02   1.42725023E-08
   3.81000005E-02   1.60072116E-08
   3.81750017E-02   1.77753741E-08
   3.82499993E-02   1.95757952E-08
   3.83250006E-02   2.14072173E-08
   3.84000018E-02   2.32683046E-08
   3.84749994E-02   2.51576466E-08
   3.85500006E-02   2.70737655E-08
   3.86249982E-02   2.90151085E-08
   3.86999995E-02   3.09800470E-08
   3.87750007E-02   3.29668879E-08
   3.88499983E-02   3.49738478E-08
   3.89249995E-02   3.69990936E-08
   3.90000008E-02   3.90407102E-08
   3.90749983E-02   4.10967083E-08
   3.91499996E-02   4.31650236E-08
   3.92250009E-02   4.52435387E-08
   3.92999984E-02   4.73300581E-08
   3.93749997E-02   4.94223151E-08
   3.94500010E-02   5.15179792E-08
   3.95249985E-02   5.36146629E-08
   3.95999998E-02   5.57098936E-08
   3.96750011E-02   5.78011488E-08
   3.97499986E-02   5.98858421E-08
   3.98249999E-02   6.19613303E-08
   3.99000011E-02   6.40249098E-08
   3.99749987E-02   6.60738237E-08
   4.00500000E-02   6.81052583E-08
   4.01250012E-02   7.01163358E-08
   4.01999988E-02   7.21041431E-08
   4.02750000E-02   7.40657171E-08
   4.03500013E-02   7.59980381E-08
   4.04249988E-02   7.78980507E-08
   4.05000001E-02   7.97626640E-08
   4.05750014E-02   8.15887589E-08
   4.06499989E-02   8.33731448E-08
   4.07250002E-02   8.51126316E-08
   4.08000015E-02   8.68039791E-08
   4.08749990E-02   8.84439402E-08
   4.09500003E-02   9.00292321E-08
   4.10250016E-02   9.15565508E-08
   4.10999991E-02   9.30225852E-08
   4.11750004E-02   9.44240028E-08
   4.12500016E-02   9.57574713E-08
   4.13249992E-02   9.70196510E-08
   4.14000005E-02   9.82071882E-08
   4.14750017E-02   9.93167575E-08
   4.15499993E-02   1.00345005E-07
   4.16250005E-02   1.01288620E-07
   4.17000018E-02   1.02144291E-07
   4.17749994E-02   1.02908714E-07
   4.18500006E-02   1.03578635E-07
   4.19249982E-02   1.04150800E-07
   4.19999994E-02   1.04622004E-07
   4.20750007E-02   1.04989070E-07
   4.21499982E-02   1.05248873E-07
   4.22249995E-02   1.05398307E-07
   4.23000008E-02   1.05434346E-07
   4.23749983E-02   1.05353998E-07
   4.24499996E-02   1.05154356E-07
   4.25250009E-02   1.04832544E-07
   4.25999984E-02   1.04385769E-07
   4.26749997E-02   1.03811317E-07
   4.27500010E-02   1.03106537E-07
   4.28249985E-02   1.02268885E-07
   4.28999998E-02   1.01295875E-07
   4.29750010E-02   1.00185147E-07
   4.30499986E-02   9.89344002E-08
   4.31249999E-02   9.75414736E-08
   4.32000011E-02   9.60042854E-08
   4.32749987E-02   9.43208818E-08
   4.33499999E-02   9.24894081E-08
   4.34250012E-02   9.05081521E-08
   4.34999987E-02   8.83755078E-08
   4.35750000E-02   8.60900116E-08
   4.36500013E-02   8.36503418E-08
   4.37249988E-02   8.10553118E-08
   4.38000001E-02   7.83038629E-08
   4.38750014E-02   7.53950999E-08
   4.39499989E-02   7.23282838E-08
   4.40250002E-02   6.91028177E-08
   4.41000015E-02   6.57182682E-08
   4.41749990E-02   6.21743936E-08
   4.42500003E-02   5.84710840E-08
   4.43250015E-02   5.46084280E-08
   4.43999991E-02   5.05866851E-08
   4.44750004E-02   4.64062850E-08
   4.45500016E-02   4.20678532E-08
   4.46249992E-02   3.75722031E-08
   4.47000004E-02   3.29203331E-08
   4.47750017E-02   2.81134351E-08
   4.48499992E-02   2.31529000E-08
   4.49250005E-02   1.80403159E-08
   4.50000018E-02   1.27774777E-08
   4.50749993E-02   7.36637995E-09
   4.51500006E-02   1.80922555E-09
   4.52249981E-02  -3.89157462E-09
   4.52999994E-02  -9.73339542E-09
   4.53750007E-02  -1.57134057E-08
   4.54499982E-02  -2.18285514E-08
   4.55249995E-02  -2.80755721E-08
   4.56000008E-02  -3.44509878E-08
   4.56749983E-02  -4.09511003E-08
   4.57499996E-02  -4.75719908E-08
   4.58250009E-02  -5.43095240E-08
   4.58999984E-02  -6.11593478E-08
   4.59749997E-02  -6.81168899E-08
   4.60500009E-02  -7.51773683E-08
   4.61249985E-02  -8.23357666E-08
   4.61999997E-02  -8.95868624E-08
   4.62750010E-02  -9.69252127E-08
   4.63499986E-02  -1.04345162E-07
   4.64249998E-02  -1.11840848E-07
   4.65000011E-02  -1.19406181E-07
   4.65749986E-02  -1.27034852E-07
   4.66499999E-02  -1.34720395E-07
   4.67250012E-02  -1.42456088E-07
   4.67999987E-02  -1.50235024E-07
   4.68750000E-02  -1.58050113E-07
   4.69500013E-02  -1.65894050E-07
   4.70249988E-02  -1.73759318E-07
   4.71000001E-02  -1.81638271E-07
   4.71750014E-02  -1.89523007E-07
   4.72499989E-02  -1.97405498E-07
   4.73250002E-02  -2.05277530E-07
   4.74000014E-02  -2.13130718E-07
   4.74749990E-02  -2.20956494E-07
   4.75500003E-02  -2.28746160E-07
   4.76250015E-02  -2.36490834E-07
   4.76999991E-02  -2.44181507E-07
   4.77750003E-02  -2.51808984E-07
   4.78500016E-02  -2.59364015E-07
   4.79249991E-02  -2.66837191E-07
   4.80000004E-02  -2.74218962E-07
   4.80750017E-02  -2.81499666E-07
   4.81499992E-02  -2.88669582E-07
   4.82250005E-02  -2.95718820E-07
   4.83000018E-02  -3.02637432E-07
   4.83749993E-02  -3.09415412E-07
   4.84500006E-02  -3.16042730E-07
   4.85250019E-02  -3.22509123E-07
   4.85999994E-02  -3.28804475E-07
   4.86750007E-02  -3.34918468E-07
   4.87499982E-02  -3.40840813E-07
   4.88249995E-02  -3.46561251E-07
   4.89000008E-02  -3.52069407E-07
   4.89749983E-02  -3.57354935E-07
   4.90499996E-02  -3.62407576E-07
   4.91250008E-02  -3.67216984E-07
   4.91999984E-02  -3.71772870E-07
   4.92749996E-02  -3.76065032E-07
   4.93500009E-02  -3.80083208E-07
   4.94249985E-02  -3.83817309E-07
   4.94999997E-02  -3.87257273E-07
   4.95750010E-02  -3.90393126E-07
   4.96499985E-02  -3.93215004E-07
   4.97249998E-02  -3.95713101E-07
   4.98000011E-02  -3.97877812E-07
   4.98749986E-02  -3.99699559E-07
   4.99499999E-02  -4.01169046E-07
   5.00250012E-02  -4.02276982E-07
   5.00999987E-02  -4.03014383E-07
   5.01750000E-02  -4.03372354E-07
   5.02500013E-02  -4.03342227E-07
   5.03249988E-02  -4.02915532E-07
   5.04000001E-02  -4.02084055E-07
   5.04750013E-02  -4.00839724E-07
   5.05499989E-02  -3.99174837E-07
   5.06250001E-02  -3.97081834E-07
   5.07000014E-02  -3.94553496E-07
   5.07749990E-02  -3.91582887E-07
   5.08500002E-02  -3.88163329E-07
   5.09250015E-02  -3.84288427E-07
   5.09999990E-02  -3.79952212E-07
   5.10750003E-02  -3.75148915E-07
   5.11500016E-02  -3.69873220E-07
   5.12249991E-02  -3.64120069E-07
   5.13000004E-02  -3.57884858E-07
   5.13750017E-02  -3.51163351E-07
   5.14499992E-02  -3.43951626E-07
   5.15250005E-02  -3.36246245E-07
   5.16000018E-02  -3.28044194E-07
   5.16749993E-02  -3.19342746E-07
   5.17500006E-02  -3.10139797E-07
   5.18250018E-02  -3.00433584E-07
   5.18999994E-02  -2.90222800E-07
   5.19750006E-02  -2.79506651E-07
   5.20499982E-02  -2.68284765E-07
   5.21249995E-02  -2.56557286E-07
   5.22000007E-02  -2.44324895E-07
   5.22749983E-02  -2.31588672E-07
   5.23499995E-02  -2.18350294E-07
   5.24250008E-02  -2.04611950E-07
   5.24999984E-02  -1.90376340E-07
   5.25749996E-02  -1.75646704E-07
   5.26500009E-02  -1.60426808E-07
   5.27249984E-02  -1.44721000E-07
   5.27999997E-02  -1.28534168E-07
   5.28750010E-02  -1.11871771E-07
   5.29499985E-02  -9.47398178E-08
   5.30249998E-02  -7.71449180E-08
   5.31000011E-02  -5.90942335E-08
   5.31749986E-02  -4.05955234E-08
   5.32499999E-02  -2.16571312E-08
   5.33250012E-02  -2.28798491E-09
   5.33999987E-02   1.75024049E-08
   5.34750000E-02   3.77039235E-08
   5.35500012E-02   5.83058579E-08
   5.36249988E-02   7.92969033E-08
   5.37000000E-02   1.00665176E-07
   5.37750013E-02   1.22398163E-07
   5.38499989E-02   1.44482783E-07
   5.39250001E-02   1.66905338E-07
   5.40000014E-02   1.89651573E-07
   5.40749989E-02   2.12706610E-07
   5.41500002E-02   2.36055016E-07
   5.42250015E-02   2.59680718E-07
   5.42999990E-02   2.83567118E-07
   5.43750003E-02   3.07697064E-07
   5.44500016E-02   3.32052736E-07
   5.45249991E-02   3.56615885E-07
   5.46000004E-02   3.81367585E-07
   5.46750017E-02   4.06288450E-07
   5.47499992E-02   4.31358558E-07
   5.48250005E-02   4.56557359E-07
   5.49000017E-02   4.81863879E-07
   5.49749993E-02   5.07256573E-07
   5.50500005E-02   5.32713500E-07
   5.51250018E-02   5.58212037E-07
   5.51999994E-02   5.83729275E-07
   5.52750006E-02   6.09241795E-07
   5.53499982E-02   6.34725666E-07
   5.54249994E-02   6.60156559E-07
   5.55000007E-02   6.85509747E-07
   5.55749983E-02   7.10759991E-07
   5.56499995E-02   7.35881827E-07
   5.57250008E-02   7.60849389E-07
   5.57999983E-02   7.85636303E-07
   5.58749996E-02   8.10216079E-07
   5.59500009E-02   8.34561718E-07
   5.60249984E-02   8.58646104E-07
   5.60999997E-02   8.82441668E-07
   5.61750010E-02   9.05920729E-07
   5.62499985E-02   9.29055261E-07
   5.63249998E-02   9.51816958E-07
   5.64000010E-02   9.74177510E-07
   5.64749986E-02   9.96108497E-07
   5.65499999E-02   1.01758087E-06
   5.66250011E-02   1.03856610E-06
   5.66999987E-02   1.05903530E-06
   5.67749999E-02   1.07895937E-06
   5.68500012E-02   1.09830921E-06
   5.69249988E-02   1.11705572E-06
   5.70000000E-02   1.13517012E-06
   5.70750013E-02   1.15262333E-06
   5.71499988E-02   1.16938622E-06
   5.72250001E-02   1.18543016E-06
   5.73000014E-02   1.20072627E-06
   5.73749989E-02   1.21524613E-06
   5.74500002E-02   1.22896108E-06
   5.75250015E-02   1.24184305E-06
   5.75999990E-02   1.25386418E-06
   5.76750003E-02   1.26499685E-06
   5.77500015E-02   1.27521344E-06
   5.78249991E-02   1.28448721E-06
   5.79000004E-02   1.29279124E-06
   5.79750016E-02   1.30009926E-06
   5.80499992E-02   1.30638534E-06
   5.81250004E-02   1.31162415E-06
   5.82000017E-02   1.31579077E-06
   5.82749993E-02   1.31886065E-06
   5.83500005E-02   1.32081016E-06
   5.84250018E-02   1.32161585E-06
   5.84999993E-02   1.32125524E-06
   5.85750006E-02   1.31970626E-06
   5.86499982E-02   1.31694753E-06
   5.87249994E-02   1.31295837E-06
   5.88000007E-02   1.30771889E-06
   5.88749982E-02   1.30121009E-06
   5.89499995E-02   1.29341379E-06
   5.90250008E-02   1.28431248E-06
   5.90999983E-02   1.27388944E-06
   5.91749996E-02   1.26212910E-06
   5.92500009E-02   1.24901669E-06
   5.93249984E-02   1.23453856E-06
   5.93999997E-02   1.21868175E-06
   5.94750009E-02   1.20143454E-06
   5.95499985E-02   1.18278638E-06
   5.96249998E-02   1.16272747E-06
   5.97000010E-02   1.14124930E-06
   5.97749986E-02   1.11834436E-06
   5.98499998E-02   1.09400651E-06
   5.99250011E-02   1.06823086E-06
   5.99999987E-02   1.04101332E-06
   6.00749999E-02   1.01235162E-06
   6.01500012E-02   9.82244273E-07
   6.02249987E-02   9.50691174E-07
   6.03000000E-02   9.17693683E-07
   6.03750013E-02   8.83254415E-07
   6.04499988E-02   8.47377351E-07
   6.05250001E-02   8.10067831E-07
   6.06000014E-02   7.71332509E-07
   6.06749989E-02   7.31179625E-07
   6.07500002E-02   6.89618730E-07
   6.08250014E-02   6.46660908E-07
   6.08999990E-02   6.02318551E-07
   6.09750003E-02   5.56605698E-07
   6.10500015E-02   5.09537699E-07
   6.11249991E-02   4.61131606E-07
   6.12000003E-02   4.11405892E-07
   6.12750016E-02   3.60380511E-07
   6.13499992E-02   3.08077034E-07
   6.14250004E-02   2.54518483E-07
   6.15000017E-02   1.99729499E-07
   6.15749992E-02   1.43736230E-07
   6.16500005E-02   8.65663665E-08
   6.17250018E-02   2.82492039E-08
   6.17999993E-02  -3.11844595E-08
   6.18750006E-02  -9.17022618E-08
   6.19499981E-02  -1.53270292E-07
   6.20249994E-02  -2.15853063E-07
   6.21000007E-02  -2.79413598E-07
   6.21749982E-02  -3.43913342E-07
   6.22499995E-02  -4.09312179E-07
   6.23250008E-02  -4.75568527E-07
   6.23999983E-02  -5.42639327E-07
   6.24749996E-02  -6.10480015E-07
   6.25500008E-02  -6.79044604E-07
   6.26249984E-02  -7.48285458E-07
   6.27000034E-02  -8.18153694E-07
   6.27750009E-02  -8.88599004E-07
   6.28499985E-02  -9.59569434E-07
   6.29250035E-02  -1.03101195E-06
   6.30000010E-02  -1.10287192E-06
   6.30749986E-02  -1.17509376E-06
   6.31500036E-02  -1.24762028E-06
   6.32250011E-02  -1.32039293E-06
   6.32999986E-02  -1.39335236E-06
   6.33750036E-02  -1.46643742E-06
   6.34500012E-02  -1.53958638E-06
   6.35249987E-02  -1.61273590E-06
   6.36000037E-02  -1.68582199E-06
   6.36750013E-02  -1.75877926E-06
   6.37499988E-02  -1.83154145E-06
   6.38249964E-02  -1.90404137E-06
   6.39000013E-02  -1.97621057E-06
   6.39749989E-02  -2.04798062E-06
   6.40499964E-02  -2.11928091E-06
   6.41250014E-02  -2.19004141E-06
   6.41999990E-02  -2.26019029E-06