   0.00000000       0.00000000    
   7.50000036E-05   0.00000000    
   1.50000007E-04   0.00000000    
   2.24999996E-04   0.00000000    
   3.00000014E-04  -2.66858363E-26
   3.75000003E-04  -3.53434239E-25
   4.49999992E-04  -2.38885896E-24
   5.24999981E-04  -1.11977480E-23
   6.00000028E-04  -4.12682517E-23
   6.75000018E-04  -1.27963273E-22
   7.50000007E-04  -3.48072745E-22
   8.24999996E-04  -8.54024199E-22
   8.99999985E-04  -1.92760689E-21
   9.74999974E-04  -4.06050402E-21
   1.04999996E-03  -8.07051851E-21
   1.12499995E-03  -1.52641545E-20
   1.20000006E-03  -2.76580763E-20
   1.27500005E-03  -4.82739600E-20
   1.35000004E-03  -8.15232699E-20
   1.42500002E-03  -1.33701274E-19
   1.50000001E-03  -2.13610966E-19
   1.57500000E-03  -3.33340035E-19
   1.64999999E-03  -5.09219468E-19
   1.72499998E-03  -7.62989277E-19
   1.79999997E-03  -1.12320384E-18
   1.87499996E-03  -1.62691196E-18
   1.94999995E-03  -2.32164596E-18
   2.02500005E-03  -3.26775923E-18
   2.09999993E-03  -4.54116531E-18
   2.17500003E-03  -6.23648770E-18
   2.24999990E-03  -8.47071825E-18
   2.32500001E-03  -1.13873993E-17
   2.40000011E-03  -1.51613852E-17
   2.47499999E-03  -2.00042431E-17
   2.55000009E-03  -2.61703286E-17
   2.62499996E-03  -3.39636654E-17
   2.70000007E-03  -4.37455757E-17
   2.77499994E-03  -5.59432373E-17
   2.85000005E-03  -7.10591027E-17
   2.92499992E-03  -8.96813868E-17
   3.00000003E-03  -1.12495518E-16
   3.07499990E-03  -1.40296873E-16
   3.15000000E-03  -1.74004523E-16
   3.22500011E-03  -2.14676252E-16
   3.29999998E-03  -2.63525238E-16
   3.37500009E-03  -3.21937397E-16
   3.44999996E-03  -3.91490767E-16
   3.52500007E-03  -4.73976238E-16
   3.59999994E-03  -5.71419649E-16
   3.67500004E-03  -6.86105211E-16
   3.74999992E-03  -8.20601708E-16
   3.82500002E-03  -9.77789212E-16
   3.89999989E-03  -1.16088692E-15
   3.97500023E-03  -1.37348521E-15
   4.05000011E-03  -1.61957750E-15
   4.12499998E-03  -1.90359262E-15
   4.19999985E-03  -2.23043236E-15
   4.27500019E-03  -2.60550829E-15
   4.35000006E-03  -3.03478077E-15
   4.42499993E-03  -3.52480077E-15
   4.49999981E-03  -4.08275175E-15
   4.57500014E-03  -4.71649290E-15
   4.65000002E-03  -5.43460489E-15
   4.72499989E-03  -6.24643981E-15
   4.80000023E-03  -7.16216925E-15
   4.87500010E-03  -8.19282793E-15
   4.94999997E-03  -9.35037638E-15
   5.02499985E-03  -1.06477386E-14
   5.10000018E-03  -1.20988645E-14
   5.17500006E-03  -1.37187836E-14
   5.24999993E-03  -1.55236558E-14
   5.32499980E-03  -1.75308241E-14
   5.40000014E-03  -1.97588697E-14
   5.47500001E-03  -2.22276709E-14
   5.54999989E-03  -2.49584509E-14
   5.62500022E-03  -2.79738272E-14
   5.70000010E-03  -3.12978674E-14
   5.77499997E-03  -3.49561485E-14
   5.84999984E-03  -3.89757840E-14
   5.92500018E-03  -4.33854850E-14
   6.00000005E-03  -4.82156056E-14
   6.07499992E-03  -5.34981639E-14
   6.14999980E-03  -5.92669021E-14
   6.22500014E-03  -6.55572940E-14
   6.30000001E-03  -7.24065854E-14
   6.37499988E-03  -7.98538075E-14
   6.45000022E-03  -8.79398347E-14
   6.52500009E-03  -9.67073508E-14
   6.59999996E-03  -1.06200855E-13
   6.67499984E-03  -1.16466664E-13
   6.75000018E-03  -1.27552943E-13
   6.82500005E-03  -1.39509606E-13
   6.89999992E-03  -1.52388356E-13
   6.97499979E-03  -1.66242603E-13
   7.05000013E-03  -1.81127425E-13
   7.12500000E-03  -1.97099579E-13
   7.19999988E-03  -2.14217316E-13
   7.27500021E-03  -2.32540332E-13
   7.35000009E-03  -2.52129697E-13
   7.42499996E-03  -2.73047833E-13
   7.49999983E-03  -2.95358166E-13
   7.57500017E-03  -3.19125097E-13
   7.65000004E-03  -3.44413978E-13
   7.72499992E-03  -3.71290726E-13
   7.79999979E-03  -3.99821750E-13
   7.87500013E-03  -4.30073755E-13
   7.95000046E-03  -4.62113475E-13
   8.02499987E-03  -4.96007424E-13
   8.10000021E-03  -5.31821657E-13
   8.17499962E-03  -5.69621444E-13
   8.24999996E-03  -6.09471024E-13
   8.32500029E-03  -6.51433389E-13
   8.39999970E-03  -6.95569741E-13
   8.47500004E-03  -7.41939062E-13
   8.55000038E-03  -7.90598110E-13
   8.62499978E-03  -8.41600715E-13
   8.70000012E-03  -8.94997347E-13
   8.77500046E-03  -9.50834789E-13
   8.84999987E-03  -1.00915576E-12
   8.92500021E-03  -1.06999815E-12
   8.99999961E-03  -1.13339459E-12
   9.07499995E-03  -1.19937187E-12
   9.15000029E-03  -1.26795081E-12
   9.22499970E-03  -1.33914537E-12
   9.30000003E-03  -1.41296176E-12
   9.37500037E-03  -1.48939845E-12
   9.44999978E-03  -1.56844492E-12
   9.52500012E-03  -1.65008166E-12
   9.60000046E-03  -1.73427895E-12
   9.67499986E-03  -1.82099670E-12
   9.75000020E-03  -1.91018360E-12
   9.82499961E-03  -2.00177592E-12
   9.89999995E-03  -2.09569710E-12
   9.97500028E-03  -2.19185781E-12
   1.00499997E-02  -2.29015353E-12
   1.01250000E-02  -2.39046630E-12
   1.02000004E-02  -2.49266168E-12
   1.02749998E-02  -2.59658918E-12
   1.03500001E-02  -2.70208031E-12
   1.04250005E-02  -2.80895034E-12
   1.04999999E-02  -2.91699542E-12
   1.05750002E-02  -3.02599200E-12
   1.06499996E-02  -3.13569743E-12
   1.07249999E-02  -3.24584825E-12
   1.08000003E-02  -3.35616040E-12
   1.08749997E-02  -3.46632705E-12
   1.09500000E-02  -3.57601991E-12
   1.10250004E-02  -3.68488746E-12
   1.10999998E-02  -3.79255351E-12
   1.11750001E-02  -3.89861927E-12
   1.12500004E-02  -4.00266192E-12
   1.13249999E-02  -4.10423301E-12
   1.14000002E-02  -4.20285898E-12
   1.14749996E-02  -4.29804109E-12
   1.15499999E-02  -4.38925415E-12
   1.16250003E-02  -4.47594739E-12
   1.16999997E-02  -4.55754401E-12
   1.17750000E-02  -4.63344163E-12
   1.18500004E-02  -4.70301142E-12
   1.19249998E-02  -4.76559894E-12
   1.20000001E-02  -4.82052462E-12
   1.20750004E-02  -4.86708243E-12
   1.21499998E-02  -4.90454292E-12
   1.22250002E-02  -4.93215148E-12
   1.22999996E-02  -4.94912791E-12
   1.23749999E-02  -4.95466992E-12
   1.24500003E-02  -4.94795481E-12
   1.25249997E-02  -4.92813689E-12
   1.26000000E-02  -4.89435098E-12
   1.26750004E-02  -4.84571237E-12
   1.27499998E-02  -4.78131900E-12
   1.28250001E-02  -4.70025147E-12
   1.29000004E-02  -4.60157780E-12
   1.29749998E-02  -4.48435213E-12
   1.30500002E-02  -4.34761732E-12
   1.31249996E-02  -4.19040800E-12
   1.31999999E-02  -4.01175274E-12
   1.32750003E-02  -3.81067573E-12
   1.33499997E-02  -3.58619471E-12
   1.34250000E-02  -3.33733518E-12
   1.35000004E-02  -3.06312658E-12
   1.35749998E-02  -2.76260113E-12
   1.36500001E-02  -2.43480214E-12
   1.37250004E-02  -2.07878766E-12
   1.37999998E-02  -1.69363221E-12
   1.38750002E-02  -1.27843244E-12
   1.39499996E-02  -8.32307693E-13
   1.40249999E-02  -3.54406120E-13
   1.41000003E-02   1.56089727E-13
   1.41749997E-02   6.99961410E-13
   1.42500000E-02   1.27794769E-12
   1.43250003E-02   1.89073887E-12
   1.43999998E-02   2.53897446E-12
   1.44750001E-02   3.22324242E-12
   1.45500004E-02   3.94406513E-12
   1.46249998E-02   4.70189903E-12
   1.47000002E-02   5.49713009E-12
   1.47749996E-02   6.33006234E-12
   1.48499999E-02   7.20091781E-12
   1.49250003E-02   8.10983052E-12
   1.49999997E-02   9.05683688E-12
   1.50750000E-02   1.00418753E-11
   1.51500003E-02   1.10647793E-11
   1.52249997E-02   1.21252600E-11
   1.53000001E-02   1.32229176E-11
   1.53750004E-02   1.43572229E-11
   1.54499998E-02   1.55275133E-11
   1.55250002E-02   1.67329917E-11
   1.55999996E-02   1.79727101E-11
   1.56750008E-02   1.92455774E-11
   1.57500003E-02   2.05503409E-11
   1.58249997E-02   2.18855802E-11
   1.59000009E-02   2.32497129E-11
   1.59750003E-02   2.46409785E-11
   1.60499997E-02   2.60574375E-11
   1.61249992E-02   2.74969561E-11
   1.62000004E-02   2.89572116E-11
   1.62749998E-02   3.04356852E-11
   1.63499992E-02   3.19296395E-11
   1.64250005E-02   3.34361462E-11
   1.64999999E-02   3.49520517E-11
   1.65749993E-02   3.64739905E-11
   1.66500006E-02   3.79983614E-11
   1.67250000E-02   3.95213480E-11
   1.67999994E-02   4.10388980E-11
   1.68750007E-02   4.25467196E-11
   1.69500001E-02   4.40402922E-11
   1.70249995E-02   4.55148419E-11
   1.71000008E-02   4.69653622E-11
   1.71750002E-02   4.83865933E-11
   1.72499996E-02   4.97730364E-11
   1.73250008E-02   5.11189424E-11
   1.74000002E-02   5.24183127E-11
   1.74749997E-02   5.36649128E-11
   1.75500009E-02   5.48522408E-11
   1.76250003E-02   5.59735591E-11
   1.76999997E-02   5.70218976E-11
   1.77749991E-02   5.79900329E-11
   1.78500004E-02   5.88705126E-11
   1.79249998E-02   5.96556485E-11
   1.79999992E-02   6.03375197E-11
   1.80750005E-02   6.09079870E-11
   1.81499999E-02   6.13587028E-11
   1.82249993E-02   6.16810977E-11
   1.83000006E-02   6.18664217E-11
   1.83750000E-02   6.19057167E-11
   1.84499994E-02   6.17898302E-11
   1.85250007E-02   6.15094711E-11
   1.86000001E-02   6.10551609E-11
   1.86749995E-02   6.04172753E-11
   1.87500007E-02   5.95861138E-11
   1.88250002E-02   5.85517815E-11
   1.88999996E-02   5.73043071E-11
   1.89750008E-02   5.58336433E-11
   1.90500002E-02   5.41296556E-11
   1.91249996E-02   5.21821648E-11
   1.92000009E-02   4.99809777E-11
   1.92750003E-02   4.75158871E-11
   1.93499997E-02   4.47766615E-11
   1.94249991E-02   4.17531183E-11
   1.95000004E-02   3.84351509E-11
   1.95749998E-02   3.48127291E-11
   1.96499992E-02   3.08759025E-11
   1.97250005E-02   2.66148492E-11
   1.97999999E-02   2.20199449E-11
   1.98749993E-02   1.70817440E-11
   1.99500006E-02   1.17910187E-11
   2.00250000E-02   6.13877222E-12
   2.00999994E-02   1.16288300E-13
   2.01750007E-02  -6.28482813E-12
   2.02500001E-02  -1.30726176E-11
   2.03249995E-02  -2.02547510E-11
   2.04000007E-02  -2.78384971E-11
   2.04750001E-02  -3.58306614E-11
   2.05499995E-02  -4.42375893E-11
   2.06250008E-02  -5.30650905E-11
   2.07000002E-02  -6.23184004E-11
   2.07749996E-02  -7.20022028E-11
   2.08500009E-02  -8.21205118E-11
   2.09250003E-02  -9.26766580E-11
   2.09999997E-02  -1.03673292E-10
   2.10749991E-02  -1.15112309E-10
   2.11500004E-02  -1.26994790E-10
   2.12249998E-02  -1.39320985E-10
   2.12999992E-02  -1.52090285E-10
   2.13750005E-02  -1.65301176E-10
   2.14499999E-02  -1.78951159E-10
   2.15249993E-02  -1.93036809E-10
   2.16000006E-02  -2.07553572E-10
   2.16750000E-02  -2.22495897E-10
   2.17499994E-02  -2.37857095E-10
   2.18250006E-02  -2.53629284E-10
   2.19000001E-02  -2.69803513E-10
   2.19749995E-02  -2.86369456E-10
   2.20500007E-02  -3.03315595E-10
   2.21250001E-02  -3.20629162E-10
   2.21999995E-02  -3.38295947E-10
   2.22750008E-02  -3.56300406E-10
   2.23500002E-02  -3.74625636E-10
   2.24249996E-02  -3.93253291E-10
   2.25000009E-02  -4.12163470E-10
   2.25750003E-02  -4.31334884E-10
   2.26499997E-02  -4.50744664E-10
   2.27249991E-02  -4.70368411E-10
   2.28000004E-02  -4.90180174E-10
   2.28749998E-02  -5.10152365E-10
   2.29499992E-02  -5.30255839E-10
   2.30250005E-02  -5.50459733E-10
   2.30999999E-02  -5.70731629E-10
   2.31749993E-02  -5.91037441E-10
   2.32500006E-02  -6.11341311E-10
   2.33250000E-02  -6.31605823E-10
   2.33999994E-02  -6.51791843E-10
   2.34750006E-02  -6.71858569E-10
   2.35500000E-02  -6.91763424E-10
   2.36249994E-02  -7.11462333E-10
   2.37000007E-02  -7.30909389E-10
   2.37750001E-02  -7.50057128E-10
   2.38499995E-02  -7.68856367E-10
   2.39250008E-02  -7.87256371E-10
   2.40000002E-02  -8.05204736E-10
   2.40749996E-02  -8.22647561E-10
   2.41500009E-02  -8.39529279E-10
   2.42250003E-02  -8.55792937E-10
   2.42999997E-02  -8.71379968E-10
   2.43749991E-02  -8.86230533E-10
   2.44500004E-02  -9.00283348E-10
   2.45249998E-02  -9.13475739E-10
   2.45999992E-02  -9.25743759E-10
   2.46750005E-02  -9.37022238E-10
   2.47499999E-02  -9.47244949E-10
   2.48249993E-02  -9.56344448E-10
   2.49000005E-02  -9.64252123E-10
   2.49749999E-02  -9.70898917E-10
   2.50499994E-02  -9.76214554E-10
   2.51250006E-02  -9.80127979E-10
   2.52000000E-02  -9.82567694E-10
   2.52749994E-02  -9.83461090E-10
   2.53500007E-02  -9.82735782E-10
   2.54250001E-02  -9.80318493E-10
   2.54999995E-02  -9.76135950E-10
   2.55750008E-02  -9.70114544E-10
   2.56500002E-02  -9.62180779E-10
   2.57249996E-02  -9.52261159E-10
   2.58000009E-02  -9.40282630E-10
   2.58750003E-02  -9.26172361E-10
   2.59499997E-02  -9.09857745E-10
   2.60249991E-02  -8.91267393E-10
   2.61000004E-02  -8.70330197E-10
   2.61749998E-02  -8.46976267E-10
   2.62499992E-02  -8.21136714E-10
   2.63250005E-02  -7.92743815E-10
   2.63999999E-02  -7.61731456E-10
   2.64749993E-02  -7.28034966E-10
   2.65500005E-02  -6.91591506E-10
   2.66249999E-02  -6.52339960E-10
   2.66999993E-02  -6.10221651E-10
   2.67750006E-02  -5.65180069E-10
   2.68500000E-02  -5.17161092E-10
   2.69249994E-02  -4.66113426E-10
   2.70000007E-02  -4.11988443E-10
   2.70750001E-02  -3.54740376E-10
   2.71499995E-02  -2.94326757E-10
   2.72250008E-02  -2.30709118E-10
   2.73000002E-02  -1.63852196E-10
   2.73749996E-02  -9.37242645E-11
   2.74500009E-02  -2.02977721E-11
   2.75250003E-02   5.64503930E-11
   2.75999997E-02   1.36539252E-10
   2.76749991E-02   2.19983226E-10
   2.77500004E-02   3.06791870E-10
   2.78249998E-02   3.96969707E-10
   2.78999992E-02   4.90516294E-10
   2.79750004E-02   5.87425442E-10
   2.80499998E-02   6.87685631E-10
   2.81249993E-02   7.91279708E-10
   2.82000005E-02   8.98184360E-10
   2.82749999E-02   1.00837039E-09
   2.83499993E-02   1.12180198E-09
   2.84250006E-02   1.23843735E-09
   2.85000000E-02   1.35822775E-09
   2.85749994E-02   1.48111778E-09
   2.86500007E-02   1.60704494E-09
   2.87250001E-02   1.73593984E-09
   2.87999995E-02   1.86772575E-09
   2.88750008E-02   2.00231809E-09
   2.89500002E-02   2.13962537E-09
   2.90249996E-02   2.27954811E-09
   2.91000009E-02   2.42197928E-09
   2.91750003E-02   2.56680344E-09
   2.92499997E-02   2.71389822E-09
   2.93249991E-02   2.86313218E-09
   2.94000003E-02   3.01436565E-09
   2.94749998E-02   3.16745141E-09
   2.95499992E-02   3.32223338E-09
   2.96250004E-02   3.47854745E-09
   2.96999998E-02   3.63622110E-09
   2.97749992E-02   3.79507270E-09
   2.98500005E-02   3.95491284E-09
   2.99249999E-02   4.11554391E-09
   2.99999993E-02   4.27675895E-09
   3.00750006E-02   4.43834303E-09
   3.01500000E-02   4.60007321E-09
   3.02249994E-02   4.76171813E-09
   3.03000007E-02   4.92303665E-09
   3.03750001E-02   5.08378140E-09
   3.04499995E-02   5.24369570E-09
   3.05250008E-02   5.40251577E-09
   3.06000002E-02   5.55996893E-09
   3.06749996E-02   5.71577541E-09
   3.07500008E-02   5.86964788E-09
   3.08250003E-02   6.02129102E-09
   3.08999997E-02   6.17040286E-09
   3.09749991E-02   6.31667474E-09
   3.10500003E-02   6.45978959E-09
   3.11249997E-02   6.59942501E-09
   3.11999992E-02   6.73525280E-09
   3.12750004E-02   6.86693724E-09
   3.13500017E-02   6.99413816E-09
   3.14249992E-02   7.11650960E-09
   3.15000005E-02   7.23370031E-09
   3.15750018E-02   7.34535455E-09
   3.16499993E-02   7.45111084E-09
   3.17250006E-02   7.55060636E-09
   3.18000019E-02   7.64347252E-09
   3.18749994E-02   7.72933895E-09
   3.19500007E-02   7.80783083E-09
   3.20249982E-02   7.87857157E-09
   3.20999995E-02   7.94118460E-09
   3.21750008E-02   7.99528976E-09
   3.22499983E-02   8.04050693E-09
   3.23249996E-02   8.07645684E-09
   3.24000008E-02   8.10275758E-09
   3.24749984E-02   8.11903078E-09
   3.25499997E-02   8.12489809E-09
   3.26250009E-02   8.11998380E-09
   3.26999985E-02   8.10391310E-09
   3.27749997E-02   8.07631650E-09
   3.28500010E-02   8.03682720E-09
   3.29249986E-02   7.98508371E-09
   3.29999998E-02   7.92072630E-09
   3.30750011E-02   7.84340504E-09
   3.31499986E-02   7.75277442E-09
   3.32249999E-02   7.64849695E-09
   3.33000012E-02   7.53024132E-09
   3.33749987E-02   7.39768780E-09
   3.34500000E-02   7.25052240E-09
   3.35250013E-02   7.08844228E-09
   3.35999988E-02   6.91115654E-09
   3.36750001E-02   6.71838363E-09
   3.37500013E-02   6.50985577E-09
   3.38249989E-02   6.28531849E-09
   3.39000002E-02   6.04452755E-09
   3.39750014E-02   5.78725645E-09
   3.40499990E-02   5.51329382E-09
   3.41250002E-02   5.22244381E-09
   3.42000015E-02   4.91452479E-09
   3.42749991E-02   4.58937510E-09
   3.43500003E-02   4.24685087E-09
   3.44250016E-02   3.88682597E-09
   3.44999991E-02   3.50919649E-09
   3.45750004E-02   3.11387627E-09
   3.46500017E-02   2.70080114E-09
   3.47249992E-02   2.26992825E-09
   3.48000005E-02   1.82123872E-09
   3.48750018E-02   1.35473610E-09
   3.49499993E-02   8.70445993E-10
   3.50250006E-02   3.68421127E-10
   3.51000018E-02  -1.51259366E-10
   3.51749994E-02  -6.88493429E-10
   3.52500007E-02  -1.24315225E-09
   3.53249982E-02  -1.81507975E-09
   3.53999995E-02  -2.40409070E-09
   3.54750007E-02  -3.00997116E-09
   3.55499983E-02  -3.63248165E-09
   3.56249996E-02  -4.27135038E-09
   3.57000008E-02  -4.92627583E-09
   3.57749984E-02  -5.59692914E-09
   3.58499996E-02  -6.28294883E-09
   3.59250009E-02  -6.98394231E-09
   3.59999985E-02  -7.69948461E-09
   3.60749997E-02  -8.42912140E-09
   3.61500010E-02  -9.17236509E-09
   3.62249985E-02  -9.92869520E-09
   3.62999998E-02  -1.06975584E-08
   3.63750011E-02  -1.14783703E-08
   3.64499986E-02  -1.22705108E-08
   3.65249999E-02  -1.30733282E-08
   3.66000012E-02  -1.38861393E-08
   3.66749987E-02  -1.47082257E-08
   3.67500000E-02  -1.55388378E-08
   3.68250012E-02  -1.63771876E-08
   3.68999988E-02  -1.72224617E-08
   3.69750001E-02  -1.80738073E-08
   3.70500013E-02  -1.89303435E-08
   3.71249989E-02  -1.97911536E-08
   3.72000001E-02  -2.06552908E-08
   3.72750014E-02  -2.15217746E-08
   3.73499990E-02  -2.23895977E-08
   3.74250002E-02  -2.32577140E-08
   3.75000015E-02  -2.41250522E-08
   3.75749990E-02  -2.49905128E-08
   3.76500003E-02  -2.58529624E-08
   3.77250016E-02  -2.67112412E-08
   3.77999991E-02  -2.75641572E-08
   3.78750004E-02  -2.84104971E-08
   3.79500017E-02  -2.92490192E-08
   3.80249992E-02  -3.00784535E-08
   3.81000005E-02  -3.08975103E-08
   3.81750017E-02  -3.17048681E-08
   3.82499993E-02  -3.24991944E-08
   3.83250006E-02  -3.32791217E-08
   3.84000018E-02  -3.40432749E-08
   3.84749994E-02  -3.47902471E-08
   3.85500006E-02  -3.55186245E-08
   3.86249982E-02  -3.62269716E-08
   3.86999995E-02  -3.69138355E-08
   3.87750007E-02  -3.75777560E-08
   3.88499983E-02  -3.82172516E-08
   3.89249995E-02  -3.88308337E-08
   3.90000008E-02  -3.94170065E-08
   3.90749983E-02  -3.99742639E-08
   3.91499996E-02  -4.05010958E-08
   3.92250009E-02  -4.09959888E-08
   3.92999984E-02  -4.14574188E-08
   3.93749997E-02  -4.18838617E-08
   3.94500010E-02  -4.22738147E-08
   3.95249985E-02  -4.26257536E-08
   3.95999998E-02  -4.29381686E-08
   3.96750011E-02  -4.32095568E-08
   3.97499986E-02  -4.34384191E-08
   3.98249999E-02  -4.36232703E-08
   3.99000011E-02  -4.37626468E-08
   3.99749987E-02  -4.38550884E-08
   4.00500000E-02  -4.38991492E-08
   4.01250012E-02  -4.38934151E-08
   4.01999988E-02  -4.38364935E-08
   4.02750000E-02  -4.37270060E-08
   4.03500013E-02  -4.35636061E-08
   4.04249988E-02  -4.33449756E-08
   4.05000001E-02  -4.30698250E-08
   4.05750014E-02  -4.27369002E-08
   4.06499989E-02  -4.23449791E-08
   4.07250002E-02  -4.18928892E-08
   4.08000015E-02  -4.13794758E-08
   4.08749990E-02  -4.08036485E-08
   4.09500003E-02  -4.01643483E-08
   4.10250016E-02  -3.94605735E-08
   4.10999991E-02  -3.86913577E-08
   4.11750004E-02  -3.78558092E-08
   4.12500016E-02  -3.69530717E-08
   4.13249992E-02  -3.59823424E-08
   4.14000005E-02  -3.49429037E-08
   4.14750017E-02  -3.38340769E-08
   4.15499993E-02  -3.26552403E-08
   4.16250005E-02  -3.14058504E-08
   4.17000018E-02  -3.00854488E-08
   4.17749994E-02  -2.86936217E-08
   4.18500006E-02  -2.72300387E-08
   4.19249982E-02  -2.56944332E-08
   4.19999994E-02  -2.40866278E-08
   4.20750007E-02  -2.24065335E-08
   4.21499982E-02  -2.06541255E-08
   4.22249995E-02  -1.88294536E-08
   4.23000008E-02  -1.69326757E-08
   4.23749983E-02  -1.49640229E-08
   4.24499996E-02  -1.29238087E-08
   4.25250009E-02  -1.08124452E-08
   4.25999984E-02  -8.63044924E-09
   4.26749997E-02  -6.37841913E-09
   4.27500010E-02  -4.05704004E-09
   4.28249985E-02  -1.66710257E-09
   4.28999998E-02   7.90506660E-10
   4.29750010E-02   3.31480754E-09
   4.30499986E-02   5.90470650E-09
   4.31249999E-02   8.55901483E-09
   4.32000011E-02   1.12764491E-08
   4.32749987E-02   1.40556109E-08
   4.33499999E-02   1.68950027E-08
   4.34250012E-02   1.97930223E-08
   4.34999987E-02   2.27479671E-08
   4.35750000E-02   2.57580215E-08
   4.36500013E-02   2.88212600E-08
   4.37249988E-02   3.19356595E-08
   4.38000001E-02   3.50990916E-08
   4.38750014E-02   3.83093131E-08
   4.39499989E-02   4.15639789E-08
   4.40250002E-02   4.48606379E-08
   4.41000015E-02   4.81967284E-08
   4.41749990E-02   5.15695824E-08
   4.42500003E-02   5.49764358E-08
   4.43250015E-02   5.84144075E-08
   4.43999991E-02   6.18805274E-08
   4.44750004E-02   6.53717080E-08
   4.45500016E-02   6.88847663E-08
   4.46249992E-02   7.24164266E-08
   4.47000004E-02   7.59632997E-08
   4.47750017E-02   7.95219179E-08
   4.48499992E-02   8.30887004E-08
   4.49250005E-02   8.66599805E-08
   4.50000018E-02   9.02319925E-08
   4.50749993E-02   9.38008995E-08
   4.51500006E-02   9.73627508E-08
   4.52249981E-02   1.00913539E-07
   4.52999994E-02   1.04449150E-07
   4.53750007E-02   1.07965406E-07
   4.54499982E-02   1.11458043E-07
   4.55249995E-02   1.14922720E-07
   4.56000008E-02   1.18355040E-07
   4.56749983E-02   1.21750531E-07
   4.57499996E-02   1.25104634E-07
   4.58250009E-02   1.28412779E-07
   4.58999984E-02   1.31670305E-07
   4.59749997E-02   1.34872479E-07
   4.60500009E-02   1.38014570E-07
   4.61249985E-02   1.41091746E-07
   4.61999997E-02   1.44099175E-07
   4.62750010E-02   1.47031983E-07
   4.63499986E-02   1.49885253E-07
   4.64249998E-02   1.52654025E-07
   4.65000011E-02   1.55333368E-07
   4.65749986E-02   1.57918279E-07
   4.66499999E-02   1.60403758E-07
   4.67250012E-02   1.62784815E-07
   4.67999987E-02   1.65056434E-07
   4.68750000E-02   1.67213614E-07
   4.69500013E-02   1.69251365E-07
   4.70249988E-02   1.71164686E-07
   4.71000001E-02   1.72948631E-07
   4.71750014E-02   1.74598256E-07
   4.72499989E-02   1.76108657E-07
   4.73250002E-02   1.77474945E-07
   4.74000014E-02   1.78692289E-07
   4.74749990E-02   1.79755915E-07
   4.75500003E-02   1.80661104E-07
   4.76250015E-02   1.81403180E-07
   4.76999991E-02   1.81977526E-07
   4.77750003E-02   1.82379637E-07
   4.78500016E-02   1.82605049E-07
   4.79249991E-02   1.82649387E-07
   4.80000004E-02   1.82508401E-07
   4.80750017E-02   1.82177885E-07
   4.81499992E-02   1.81653803E-07
   4.82250005E-02   1.80932162E-07
   4.83000018E-02   1.80009110E-07
   4.83749993E-02   1.78880967E-07
   4.84500006E-02   1.77544138E-07
   4.85250019E-02   1.75995169E-07
   4.85999994E-02   1.74230735E-07
   4.86750007E-02   1.72247681E-07
   4.87499982E-02   1.70043009E-07
   4.88249995E-02   1.67613862E-07
   4.89000008E-02   1.64957584E-07
   4.89749983E-02   1.62071657E-07
   4.90499996E-02   1.58953782E-07
   4.91250008E-02   1.55601839E-07
   4.91999984E-02   1.52013826E-07
   4.92749996E-02   1.48188008E-07
   4.93500009E-02   1.44122907E-07
   4.94249985E-02   1.39817203E-07
   4.94999997E-02   1.35269758E-07
   4.95750010E-02   1.30479663E-07
   4.96499985E-02   1.25446263E-07
   4.97249998E-02   1.20169119E-07
   4.98000011E-02   1.14648067E-07
   4.98749986E-02   1.08883150E-07
   4.99499999E-02   1.02874658E-07
   5.00250012E-02   9.66231539E-08
   5.00999987E-02   9.01294044E-08
   5.01750000E-02   8.33945251E-08
   5.02500013E-02   7.64198518E-08
   5.03249988E-02   6.92069406E-08
   5.04000001E-02   6.17576816E-08
   5.04750013E-02   5.40742242E-08
   5.05499989E-02   4.61589771E-08
   5.06250001E-02   3.80146972E-08
   5.07000014E-02   2.96443794E-08
   5.07749990E-02   2.10512638E-08
   5.08500002E-02   1.22389343E-08
   5.09250015E-02   3.21128968E-09
   5.09999990E-02  -6.02751049E-09
   5.10750003E-02  -1.54730149E-08
   5.11500016E-02  -2.51204817E-08
   5.12249991E-02  -3.49648559E-08
   5.13000004E-02  -4.50007498E-08
   5.13750017E-02  -5.52224932E-08
   5.14499992E-02  -6.56241568E-08
   5.15250005E-02  -7.61994770E-08
   5.16000018E-02  -8.69418528E-08
   5.16749993E-02  -9.78444419E-08
   5.17500006E-02  -1.08900075E-07
   5.18250018E-02  -1.20101276E-07
   5.18999994E-02  -1.31440302E-07
   5.19750006E-02  -1.42909073E-07
   5.20499982E-02  -1.54499261E-07
   5.21249995E-02  -1.66202227E-07
   5.22000007E-02  -1.78009046E-07
   5.22749983E-02  -1.89910466E-07
   5.23499995E-02  -2.01897024E-07
   5.24250008E-02  -2.13958927E-07
   5.24999984E-02  -2.26086115E-07
   5.25749996E-02  -2.38268299E-07
   5.26500009E-02  -2.50494850E-07
   5.27249984E-02  -2.62754980E-07
   5.27999997E-02  -2.75037564E-07
   5.28750010E-02  -2.87331261E-07
   5.29499985E-02  -2.99624503E-07
   5.30249998E-02  -3.11905410E-07
   5.31000011E-02  -3.24161988E-07
   5.31749986E-02  -3.36381930E-07
   5.32499999E-02  -3.48552760E-07
   5.33250012E-02  -3.60661801E-07
   5.33999987E-02  -3.72696149E-07
   5.34750000E-02  -3.84642732E-07
   5.35500012E-02  -3.96488247E-07
   5.36249988E-02  -4.08219279E-07
   5.37000000E-02  -4.19822271E-07
   5.37750013E-02  -4.31283468E-07
   5.38499989E-02  -4.42588941E-07
   5.39250001E-02  -4.53724738E-07
   5.40000014E-02  -4.64676674E-07
   5.40749989E-02  -4.75430539E-07
   5.41500002E-02  -4.85971952E-07
   5.42250015E-02  -4.96286532E-07
   5.42999990E-02  -5.06359697E-07
   5.43750003E-02  -5.16177010E-07
   5.44500016E-02  -5.25723749E-07
   5.45249991E-02  -5.34985304E-07
   5.46000004E-02  -5.43947067E-07
   5.46750017E-02  -5.52594315E-07
   5.47499992E-02  -5.60912326E-07
   5.48250005E-02  -5.68886605E-07
   5.49000017E-02  -5.76502430E-07
   5.49749993E-02  -5.83745191E-07
   5.50500005E-02  -5.90600450E-07
   5.51250018E-02  -5.97053827E-07
   5.51999994E-02  -6.03090882E-07
   5.52750006E-02  -6.08697462E-07
   5.53499982E-02  -6.13859470E-07
   5.54249994E-02  -6.18562922E-07
   5.55000007E-02  -6.22794005E-07
   5.55749983E-02  -6.26539133E-07
   5.56499995E-02  -6.29784836E-07
   5.57250008E-02  -6.32517811E-07
   5.57999983E-02  -6.34725154E-07
   5.58749996E-02  -6.36394020E-07
   5.59500009E-02  -6.37511846E-07
   5.60249984E-02  -6.38066354E-07
   5.60999997E-02  -6.38045606E-07
   5.61750010E-02  -6.37438006E-07
   5.62499985E-02  -6.36232073E-07
   5.63249998E-02  -6.34416892E-07
   5.64000010E-02  -6.31981663E-07
   5.64749986E-02  -6.28916212E-07
   5.65499999E-02  -6.25210532E-07
   5.66250011E-02  -6.20855189E-07
   5.66999987E-02  -6.15841032E-07
   5.67749999E-02  -6.10159418E-07
   5.68500012E-02  -6.03802164E-07
   5.69249988E-02  -5.96761538E-07
   5.70000000E-02  -5.89030321E-07
   5.70750013E-02  -5.80601693E-07
   5.71499988E-02  -5.71469513E-07
   5.72250001E-02  -5.61628042E-07
   5.73000014E-02  -5.51072105E-07
   5.73749989E-02  -5.39796986E-07
   5.74500002E-02  -5.27798818E-07
   5.75250015E-02  -5.15074134E-07
   5.75999990E-02  -5.01620036E-07
   5.76750003E-02  -4.87434363E-07
   5.77500015E-02  -4.72515609E-07
   5.78249991E-02  -4.56862750E-07
   5.79000004E-02  -4.40475560E-07
   5.79750016E-02  -4.23354379E-07
   5.80499992E-02  -4.05500344E-07
   5.81250004E-02  -3.86915275E-07
   5.82000017E-02  -3.67601643E-07
   5.82749993E-02  -3.47562548E-07
   5.83500005E-02  -3.26801967E-07
   5.84250018E-02  -3.05324590E-07
   5.84999993E-02  -2.83135847E-07
   5.85750006E-02  -2.60241961E-07
   5.86499982E-02  -2.36649839E-07
   5.87249994E-02  -2.12367141E-07
   5.88000007E-02  -1.87402406E-07
   5.88749982E-02  -1.61764859E-07
   5.89499995E-02  -1.35464617E-07
   5.90250008E-02  -1.08512609E-07
   5.90999983E-02  -8.09204934E-08
   5.91749996E-02  -5.27007735E-08
   5.92500009E-02  -2.38667308E-08
   5.93249984E-02   5.56765123E-09
   5.93999997E-02   3.55874050E-08
   5.94750009E-02   6.61766890E-08
   5.95499985E-02   9.73190026E-08
   5.96249998E-02   1.28996959E-07
   5.97000010E-02   1.61192347E-07
   5.97749986E-02   1.93886052E-07
   5.98499998E-02   2.27058294E-07
   5.99250011E-02   2.60688495E-07
   5.99999987E-02   2.94755210E-07
   6.00749999E-02   3.29236116E-07
   6.01500012E-02   3.64108189E-07
   6.02249987E-02   3.99347641E-07
   6.03000000E-02   4.34929831E-07
   6.03750013E-02   4.70829292E-07
   6.04499988E-02   5.07019990E-07
   6.05250001E-02   5.43474926E-07
   6.06000014E-02   5.80166386E-07
   6.06749989E-02   6.17066007E-07
   6.07500002E-02   6.54144742E-07
   6.08250014E-02   6.91372634E-07
   6.08999990E-02   7.28719272E-07
   6.09750003E-02   7.66153448E-07
   6.10500015E-02   8.03643218E-07
   6.11249991E-02   8.41156179E-07
   6.12000003E-02   8.78659137E-07
   6.12750016E-02   9.16118267E-07
   6.13499992E-02   9.53499352E-07
   6.14250004E-02   9.90767376E-07
   6.15000017E-02   1.02788704E-06
   6.15749992E-02   1.06482230E-06
   6.16500005E-02   1.10153655E-06
   6.17250018E-02   1.13799308E-06
   6.17999993E-02   1.17415425E-06
   6.18750006E-02   1.20998243E-06
   6.19499981E-02   1.24543931E-06
   6.20249994E-02   1.28048623E-06
   6.21000007E-02   1.31508421E-06
   6.21749982E-02   1.34919412E-06
   6.22499995E-02   1.38277642E-06
   6.23250008E-02   1.41579119E-06
   6.23999983E-02   1.44819842E-06
   6.24749996E-02   1.47995809E-06
   6.25500008E-02   1.51102972E-06
   6.26249984E-02   1.54137285E-06
   6.27000034E-02   1.57094678E-06
   6.27750009E-02   1.59971114E-06
   6.28499985E-02   1.62762524E-06
   6.29250035E-02   1.65464837E-06
   6.30000010E-02   1.68074018E-06
   6.30749986E-02   1.70585997E-06
   6.31500036E-02   1.72996772E-06
   6.32250011E-02   1.75302318E-06
   6.32999986E-02   1.77498646E-06
   6.33750036E-02   1.79581787E-06
   6.34500012E-02   1.81547796E-06
   6.35249987E-02   1.83392797E-06
   6.36000037E-02   1.85112924E-06
   6.36750013E-02   1.86704324E-06
   6.37499988E-02   1.88163256E-06
   6.38249964E-02   1.89485991E-06
   6.39000013E-02   1.90668857E-06
   6.39749989E-02   1.91708250E-06
   6.40499964E-02   1.92600623E-06
   6.41250014E-02   1.93342498E-06
   6.41999990E-02   1.93930487E-06