   0.00000000       0.00000000    
   7.50000036E-05   0.00000000    
   1.50000007E-04   0.00000000    
   2.24999996E-04   0.00000000    
   3.00000014E-04  -1.62198511E-23
   3.75000003E-04  -1.63826670E-22
   4.49999992E-04  -8.94367732E-22
   5.24999981E-04  -3.51837073E-21
   6.00000028E-04  -1.11899458E-20
   6.75000018E-04  -3.05803147E-20
   7.50000007E-04  -7.45205657E-20
   8.24999996E-04  -1.65949970E-19
   8.99999985E-04  -3.43564634E-19
   9.74999974E-04  -6.69621576E-19
   1.04999996E-03  -1.24041347E-18
   1.12499995E-03  -2.19999210E-18
   1.20000006E-03  -3.75778019E-18
   1.27500005E-03  -6.21077231E-18
   1.35000004E-03  -9.97108160E-18
   1.42500002E-03  -1.55996569E-17
   1.50000001E-03  -2.38470380E-17
   1.57500000E-03  -3.57020748E-17
   1.64999999E-03  -5.24495970E-17
   1.72499998E-03  -7.57380267E-17
   1.79999997E-03  -1.07657987E-16
   1.87499996E-03  -1.50833129E-16
   1.94999995E-03  -2.08524027E-16
   2.02500005E-03  -2.84746589E-16
   2.09999993E-03  -3.84405918E-16
   2.17500003E-03  -5.13446862E-16
   2.24999990E-03  -6.79022374E-16
   2.32500001E-03  -8.89681056E-16
   2.40000011E-03  -1.15557465E-15
   2.47499999E-03  -1.48868677E-15
   2.55000009E-03  -1.90308398E-15
   2.62499996E-03  -2.41519057E-15
   2.70000007E-03  -3.04408670E-15
   2.77499994E-03  -3.81183249E-15
   2.85000005E-03  -4.74381819E-15
   2.92499992E-03  -5.86914000E-15
   3.00000003E-03  -7.22100246E-15
   3.07499990E-03  -8.83715488E-15
   3.15000000E-03  -1.07603466E-14
   3.22500011E-03  -1.30388152E-14
   3.29999998E-03  -1.57268065E-14
   3.37500009E-03  -1.88851162E-14
   3.44999996E-03  -2.25816646E-14
   3.52500007E-03  -2.68920984E-14
   3.59999994E-03  -3.19004195E-14
   3.67500004E-03  -3.76996272E-14
   3.74999992E-03  -4.43924208E-14
   3.82500002E-03  -5.20918859E-14
   3.89999989E-03  -6.09222281E-14
   3.97500023E-03  -7.10195249E-14
   4.05000011E-03  -8.25324713E-14
   4.12499998E-03  -9.56231825E-14
   4.19999985E-03  -1.10467984E-13
   4.27500019E-03  -1.27258230E-13
   4.35000006E-03  -1.46201112E-13
   4.42499993E-03  -1.67520457E-13
   4.49999981E-03  -1.91457622E-13
   4.57500014E-03  -2.18272205E-13
   4.65000002E-03  -2.48242968E-13
   4.72499989E-03  -2.81668623E-13
   4.80000023E-03  -3.18868575E-13
   4.87500010E-03  -3.60183698E-13
   4.94999997E-03  -4.05977145E-13
   5.02499985E-03  -4.56634893E-13
   5.10000018E-03  -5.12566714E-13
   5.17500006E-03  -5.74206589E-13
   5.24999993E-03  -6.42013298E-13
   5.32499980E-03  -7.16470991E-13
   5.40000014E-03  -7.98089676E-13
   5.47500001E-03  -8.87405600E-13
   5.54999989E-03  -9.84981628E-13
   5.62500022E-03  -1.09140745E-12
   5.70000010E-03  -1.20729956E-12
   5.77499997E-03  -1.33330174E-12
   5.84999984E-03  -1.47008458E-12
   5.92500018E-03  -1.61834543E-12
   6.00000005E-03  -1.77880844E-12
   6.07499992E-03  -1.95222332E-12
   6.14999980E-03  -2.13936616E-12
   6.22500014E-03  -2.34103709E-12
   6.30000001E-03  -2.55806053E-12
   6.37499988E-03  -2.79128413E-12
   6.45000022E-03  -3.04157719E-12
   6.52500009E-03  -3.30982919E-12
   6.59999996E-03  -3.59694934E-12
   6.67499984E-03  -3.90386378E-12
   6.75000018E-03  -4.23151314E-12
   6.82500005E-03  -4.58085219E-12
   6.89999992E-03  -4.95284629E-12
   6.97499979E-03  -5.34846863E-12
   7.05000013E-03  -5.76869802E-12
   7.12500000E-03  -6.21451675E-12
   7.19999988E-03  -6.68690537E-12
   7.27500021E-03  -7.18684097E-12
   7.35000009E-03  -7.71529108E-12
   7.42499996E-03  -8.27321198E-12
   7.49999983E-03  -8.86154518E-12
   7.57500017E-03  -9.48121096E-12
   7.65000004E-03  -1.01331027E-11
   7.72499992E-03  -1.08180869E-11
   7.79999979E-03  -1.15369910E-11
   7.87500013E-03  -1.22906034E-11
   7.95000046E-03  -1.30796650E-11
   8.02499987E-03  -1.39048642E-11
   8.10000021E-03  -1.47668336E-11
   8.17499962E-03  -1.56661351E-11
   8.24999996E-03  -1.66032639E-11
   8.32500029E-03  -1.75786295E-11
   8.39999970E-03  -1.85925650E-11
   8.47500004E-03  -1.96453027E-11
   8.55000038E-03  -2.07369781E-11
   8.62499978E-03  -2.18676136E-11
   8.70000012E-03  -2.30371191E-11
   8.77500046E-03  -2.42452811E-11
   8.84999987E-03  -2.54917511E-11
   8.92500021E-03  -2.67760380E-11
   8.99999961E-03  -2.80975035E-11
   9.07499995E-03  -2.94553514E-11
   9.15000029E-03  -3.08486153E-11
   9.22499970E-03  -3.22761644E-11
   9.30000003E-03  -3.37366697E-11
   9.37500037E-03  -3.52286186E-11
   9.44999978E-03  -3.67502903E-11
   9.52500012E-03  -3.82997592E-11
   9.60000046E-03  -3.98748846E-11
   9.67499986E-03  -4.14732866E-11
   9.75000020E-03  -4.30923630E-11
   9.82499961E-03  -4.47292585E-11
   9.89999995E-03  -4.63808644E-11
   9.97500028E-03  -4.80438224E-11
   1.00499997E-02  -4.97145033E-11
   1.01250000E-02  -5.13890007E-11
   1.02000004E-02  -5.30631303E-11
   1.02749998E-02  -5.47324200E-11
   1.03500001E-02  -5.63920993E-11
   1.04250005E-02  -5.80371029E-11
   1.04999999E-02  -5.96620531E-11
   1.05750002E-02  -6.12612808E-11
   1.06499996E-02  -6.28287769E-11
   1.07249999E-02  -6.43582479E-11
   1.08000003E-02  -6.58430602E-11
   1.08749997E-02  -6.72762679E-11
   1.09500000E-02  -6.86505922E-11
   1.10250004E-02  -6.99584279E-11
   1.10999998E-02  -7.11918718E-11
   1.11750001E-02  -7.23426805E-11
   1.12500004E-02  -7.34022981E-11
   1.13249999E-02  -7.43618500E-11
   1.14000002E-02  -7.52121421E-11
   1.14749996E-02  -7.59436888E-11
   1.15499999E-02  -7.65466995E-11
   1.16250003E-02  -7.70110919E-11
   1.16999997E-02  -7.73264994E-11
   1.17750000E-02  -7.74822706E-11
   1.18500004E-02  -7.74675185E-11
   1.19249998E-02  -7.72710854E-11
   1.20000001E-02  -7.68815775E-11
   1.20750004E-02  -7.62874139E-11
   1.21499998E-02  -7.54767637E-11
   1.22250002E-02  -7.44376366E-11
   1.22999996E-02  -7.31578825E-11
   1.23749999E-02  -7.16251849E-11
   1.24500003E-02  -6.98271441E-11
   1.25249997E-02  -6.77512282E-11
   1.26000000E-02  -6.53848642E-11
   1.26750004E-02  -6.27154093E-11
   1.27499998E-02  -5.97302346E-11
   1.28250001E-02  -5.64167185E-11
   1.29000004E-02  -5.27622876E-11
   1.29749998E-02  -4.87544623E-11
   1.30500002E-02  -4.43808844E-11
   1.31249996E-02  -3.96293484E-11
   1.31999999E-02  -3.44878535E-11
   1.32750003E-02  -2.89446436E-11
   1.33499997E-02  -2.29882328E-11
   1.34250000E-02  -1.66074758E-11
   1.35000004E-02  -9.79160156E-12
   1.35749998E-02  -2.53024945E-12
   1.36500001E-02   5.18645890E-12
   1.37250004E-02   1.33678910E-11
   1.37999998E-02   2.20228332E-11
   1.38750002E-02   3.11594535E-11
   1.39499996E-02   4.07852259E-11
   1.40249999E-02   5.09068968E-11
   1.41000003E-02   6.15304196E-11
   1.41749997E-02   7.26608773E-11
   1.42500000E-02   8.43024539E-11
   1.43250003E-02   9.64583621E-11
   1.43999998E-02   1.09130760E-10
   1.44750001E-02   1.22320723E-10
   1.45500004E-02   1.36028147E-10
   1.46249998E-02   1.50251742E-10
   1.47000002E-02   1.64988898E-10
   1.47749996E-02   1.80235632E-10
   1.48499999E-02   1.95986588E-10
   1.49250003E-02   2.12234841E-10
   1.49999997E-02   2.28972008E-10
   1.50750000E-02   2.46188042E-10
   1.51500003E-02   2.63871258E-10
   1.52249997E-02   2.82008195E-10
   1.53000001E-02   3.00583558E-10
   1.53750004E-02   3.19580223E-10
   1.54499998E-02   3.38979067E-10
   1.55250002E-02   3.58759050E-10
   1.55999996E-02   3.78897080E-10
   1.56750008E-02   3.99367872E-10
   1.57500003E-02   4.20144058E-10
   1.58249997E-02   4.41195913E-10
   1.59000009E-02   4.62491545E-10
   1.59750003E-02   4.83996732E-10
   1.60499997E-02   5.05674891E-10
   1.61249992E-02   5.27486943E-10
   1.62000004E-02   5.49391366E-10
   1.62749998E-02   5.71344139E-10
   1.63499992E-02   5.93298743E-10
   1.64250005E-02   6.15206053E-10
   1.64999999E-02   6.37014386E-10
   1.65749993E-02   6.58669286E-10
   1.66500006E-02   6.80113799E-10
   1.67250000E-02   7.01288361E-10
   1.67999994E-02   7.22130467E-10
   1.68750007E-02   7.42575279E-10
   1.69500001E-02   7.62555019E-10
   1.70249995E-02   7.81999299E-10
   1.71000008E-02   8.00835120E-10
   1.71750002E-02   8.18986767E-10
   1.72499996E-02   8.36375913E-10
   1.73250008E-02   8.52921733E-10
   1.74000002E-02   8.68540628E-10
   1.74749997E-02   8.83146611E-10
   1.75500009E-02   8.96651198E-10
   1.76250003E-02   9.08963571E-10
   1.76999997E-02   9.19990306E-10
   1.77749991E-02   9.29635813E-10
   1.78500004E-02   9.37802613E-10
   1.79249998E-02   9.44390566E-10
   1.79999992E-02   9.49297863E-10
   1.80750005E-02   9.52420587E-10
   1.81499999E-02   9.53653156E-10
   1.82249993E-02   9.52887991E-10
   1.83000006E-02   9.50016288E-10
   1.83750000E-02   9.44927692E-10
   1.84499994E-02   9.37510514E-10
   1.85250007E-02   9.27651844E-10
   1.86000001E-02   9.15237997E-10
   1.86749995E-02   9.00154451E-10
   1.87500007E-02   8.82285911E-10
   1.88250002E-02   8.61516636E-10
   1.88999996E-02   8.37730774E-10
   1.89750008E-02   8.10812584E-10
   1.90500002E-02   7.80646325E-10
   1.91249996E-02   7.47116646E-10
   1.92000009E-02   7.10108916E-10
   1.92750003E-02   6.69509337E-10
   1.93499997E-02   6.25205498E-10
   1.94249991E-02   5.77086212E-10
   1.95000004E-02   5.25041899E-10
   1.95749998E-02   4.68965200E-10
   1.96499992E-02   4.08750839E-10
   1.97250005E-02   3.44296036E-10
   1.97999999E-02   2.75501066E-10
   1.98749993E-02   2.02269174E-10
   1.99500006E-02   1.24507196E-10
   2.00250000E-02   4.21257439E-11
   2.00999994E-02  -4.49604000E-11
   2.01750007E-02  -1.36832018E-10
   2.02500001E-02  -2.33565028E-10
   2.03249995E-02  -3.35230260E-10
   2.04000007E-02  -4.41892939E-10
   2.04750001E-02  -5.53612267E-10
   2.05499995E-02  -6.70441480E-10
   2.06250008E-02  -7.92427013E-10
   2.07000002E-02  -9.19608223E-10
   2.07749996E-02  -1.05201736E-09
   2.08500009E-02  -1.18967869E-09
   2.09250003E-02  -1.33260847E-09
   2.09999997E-02  -1.48081447E-09
   2.10749991E-02  -1.63429548E-09
   2.11500004E-02  -1.79304105E-09
   2.12249998E-02  -1.95703120E-09
   2.12999992E-02  -2.12623563E-09
   2.13750005E-02  -2.30061437E-09
   2.14499999E-02  -2.48011545E-09
   2.15249993E-02  -2.66467715E-09
   2.16000006E-02  -2.85422552E-09
   2.16750000E-02  -3.04867465E-09
   2.17499994E-02  -3.24792682E-09
   2.18250006E-02  -3.45187123E-09
   2.19000001E-02  -3.66038488E-09
   2.19749995E-02  -3.87333099E-09
   2.20500007E-02  -4.09055900E-09
   2.21250001E-02  -4.31190594E-09
   2.21999995E-02  -4.53719284E-09
   2.22750008E-02  -4.76622786E-09
   2.23500002E-02  -4.99880359E-09
   2.24249996E-02  -5.23469801E-09
   2.25000009E-02  -5.47367351E-09
   2.25750003E-02  -5.71547831E-09
   2.26499997E-02  -5.95984329E-09
   2.27249991E-02  -6.20648510E-09
   2.28000004E-02  -6.45510312E-09
   2.28749998E-02  -6.70538158E-09
   2.29499992E-02  -6.95698832E-09
   2.30250005E-02  -7.20957338E-09
   2.30999999E-02  -7.46277351E-09
   2.31749993E-02  -7.71620634E-09
   2.32500006E-02  -7.96947397E-09
   2.33250000E-02  -8.22216073E-09
   2.33999994E-02  -8.47383586E-09
   2.34750006E-02  -8.72405259E-09
   2.35500000E-02  -8.97234553E-09
   2.36249994E-02  -9.21823595E-09
   2.37000007E-02  -9.46122647E-09
   2.37750001E-02  -9.70080460E-09
   2.38499995E-02  -9.93644367E-09
   2.39250008E-02  -1.01675983E-08
   2.40000002E-02  -1.03937108E-08
   2.40749996E-02  -1.06142064E-08
   2.41500009E-02  -1.08284954E-08
   2.42250003E-02  -1.10359784E-08
   2.42999997E-02  -1.12360361E-08
   2.43749991E-02  -1.14280381E-08
   2.44500004E-02  -1.16113421E-08
   2.45249998E-02  -1.17852927E-08
   2.45999992E-02  -1.19492221E-08
   2.46750005E-02  -1.21024524E-08
   2.47499999E-02  -1.22442936E-08
   2.48249993E-02  -1.23740458E-08
   2.49000005E-02  -1.24910020E-08
   2.49749999E-02  -1.25944437E-08
   2.50499994E-02  -1.26836470E-08
   2.51250006E-02  -1.27578792E-08
   2.52000000E-02  -1.28164022E-08
   2.52749994E-02  -1.28584743E-08
   2.53500007E-02  -1.28833486E-08
   2.54250001E-02  -1.28902746E-08
   2.54999995E-02  -1.28784992E-08
   2.55750008E-02  -1.28472681E-08
   2.56500002E-02  -1.27958284E-08
   2.57249996E-02  -1.27234276E-08
   2.58000009E-02  -1.26293163E-08
   2.58750003E-02  -1.25127473E-08
   2.59499997E-02  -1.23729782E-08
   2.60249991E-02  -1.22092754E-08
   2.61000004E-02  -1.20209087E-08
   2.61749998E-02  -1.18071579E-08
   2.62499992E-02  -1.15673151E-08
   2.63250005E-02  -1.13006804E-08
   2.63999999E-02  -1.10065708E-08
   2.64749993E-02  -1.06843139E-08
   2.65500005E-02  -1.03332560E-08
   2.66249999E-02  -9.95275951E-09
   2.66999993E-02  -9.54220702E-09
   2.67750006E-02  -9.10099818E-09
   2.68500000E-02  -8.62856098E-09
   2.69249994E-02  -8.12434209E-09
   2.70000007E-02  -7.58781482E-09
   2.70750001E-02  -7.01847958E-09
   2.71499995E-02  -6.41586695E-09
   2.72250008E-02  -5.77953596E-09
   2.73000002E-02  -5.10907849E-09
   2.73749996E-02  -4.40411974E-09
   2.74500009E-02  -3.66432151E-09
   2.75250003E-02  -2.88938140E-09
   2.75999997E-02  -2.07903605E-09
   2.76749991E-02  -1.23306243E-09
   2.77500004E-02  -3.51280061E-10
   2.78249998E-02   5.66447278E-10
   2.78999992E-02   1.52021140E-09
   2.79750004E-02   2.51005616E-09
   2.80499998E-02   3.53597773E-09
   2.81249993E-02   4.59792027E-09
   2.82000005E-02   5.69577718E-09
   2.82749999E-02   6.82938817E-09
   2.83499993E-02   7.99853872E-09
   2.84250006E-02   9.20295573E-09
   2.85000000E-02   1.04423110E-08
   2.85749994E-02   1.17162138E-08
   2.86500007E-02   1.30242146E-08
   2.87250001E-02   1.43658019E-08
   2.87999995E-02   1.57403992E-08
   2.88750008E-02   1.71473662E-08
   2.89500002E-02   1.85859967E-08
   2.90249996E-02   2.00555181E-08
   2.91000009E-02   2.15550884E-08
   2.91750003E-02   2.30837980E-08
   2.92499997E-02   2.46406664E-08
   2.93249991E-02   2.62246438E-08
   2.94000003E-02   2.78346057E-08
   2.94749998E-02   2.94693567E-08
   2.95499992E-02   3.11276338E-08
   2.96250004E-02   3.28080887E-08
   2.96999998E-02   3.45093021E-08
   2.97749992E-02   3.62297925E-08
   2.98500005E-02   3.79679932E-08
   2.99249999E-02   3.97222593E-08
   2.99999993E-02   4.14908818E-08
   3.00750006E-02   4.32720704E-08
   3.01500000E-02   4.50639597E-08
   3.02249994E-02   4.68646029E-08
   3.03000007E-02   4.86719998E-08
   3.03750001E-02   5.04840507E-08
   3.04499995E-02   5.22985992E-08
   3.05250008E-02   5.41134071E-08
   3.06000002E-02   5.59261721E-08
   3.06749996E-02   5.77345247E-08
   3.07500008E-02   5.95360170E-08
   3.08250003E-02   6.13281230E-08
   3.08999997E-02   6.31082671E-08
   3.09749991E-02   6.48738023E-08
   3.10500003E-02   6.66220146E-08
   3.11249997E-02   6.83501256E-08
   3.11999992E-02   7.00552931E-08
   3.12750004E-02   7.17346182E-08
   3.13500017E-02   7.33851593E-08
   3.14249992E-02   7.50038964E-08
   3.15000005E-02   7.65877743E-08
   3.15750018E-02   7.81336809E-08
   3.16499993E-02   7.96384541E-08
   3.17250006E-02   8.10988965E-08
   3.18000019E-02   8.25117468E-08
   3.18749994E-02   8.38737364E-08
   3.19500007E-02   8.51815329E-08
   3.20249982E-02   8.64317897E-08
   3.20999995E-02   8.76211317E-08
   3.21750008E-02   8.87461340E-08
   3.22499983E-02   8.98033790E-08
   3.23249996E-02   9.07894133E-08
   3.24000008E-02   9.17007625E-08
   3.24749984E-02   9.25339734E-08
   3.25499997E-02   9.32855500E-08
   3.26250009E-02   9.39520177E-08
   3.26999985E-02   9.45298950E-08
   3.27749997E-02   9.50157073E-08
   3.28500010E-02   9.54060013E-08
   3.29249986E-02   9.56973309E-08
   3.29999998E-02   9.58862714E-08
   3.30750011E-02   9.59694262E-08
   3.31499986E-02   9.59434203E-08
   3.32249999E-02   9.58049355E-08
   3.33000012E-02   9.55506749E-08
   3.33749987E-02   9.51773842E-08
   3.34500000E-02   9.46818943E-08
   3.35250013E-02   9.40610576E-08
   3.35999988E-02   9.33118045E-08
   3.36750001E-02   9.24311223E-08
   3.37500013E-02   9.14160978E-08
   3.38249989E-02   9.02638604E-08
   3.39000002E-02   8.89716532E-08
   3.39750014E-02   8.75367974E-08
   3.40499990E-02   8.59567137E-08
   3.41250002E-02   8.42289225E-08
   3.42000015E-02   8.23510504E-08
   3.42749991E-02   8.03208522E-08
   3.43500003E-02   7.81361749E-08
   3.44250016E-02   7.57950147E-08
   3.44999991E-02   7.32954817E-08
   3.45750004E-02   7.06358279E-08
   3.46500017E-02   6.78144545E-08
   3.47249992E-02   6.48298979E-08
   3.48000005E-02   6.16808649E-08
   3.48750018E-02   5.83662008E-08
   3.49499993E-02   5.48849250E-08
   3.50250006E-02   5.12362170E-08
   3.51000018E-02   4.74194515E-08
   3.51749994E-02   4.34341594E-08
   3.52500007E-02   3.92800708E-08
   3.53249982E-02   3.49571074E-08
   3.53999995E-02   3.04653796E-08
   3.54750007E-02   2.58051926E-08
   3.55499983E-02   2.09770672E-08
   3.56249996E-02   1.59817262E-08
   3.57000008E-02   1.08201066E-08
   3.57749984E-02   5.49336265E-09
   3.58499996E-02   2.87248589E-12
   3.59250009E-02  -5.64976332E-09
   3.59999985E-02  -1.14627179E-08
   3.60749997E-02  -1.74339281E-08
   3.61500010E-02  -2.35610962E-08
   3.62249985E-02  -2.98416829E-08
   3.62999998E-02  -3.62729189E-08
   3.63750011E-02  -4.28517808E-08
   3.64499986E-02  -4.95749966E-08
   3.65249999E-02  -5.64390490E-08
   3.66000012E-02  -6.34401758E-08
   3.66749987E-02  -7.05743517E-08
   3.67500000E-02  -7.78373135E-08
   3.68250012E-02  -8.52245279E-08
   3.68999988E-02  -9.27312200E-08
   3.69750001E-02  -1.00352359E-07
   3.70500013E-02  -1.08082638E-07
   3.71249989E-02  -1.15916507E-07
   3.72000001E-02  -1.23848167E-07
   3.72750014E-02  -1.31871559E-07
   3.73499990E-02  -1.39980372E-07
   3.74250002E-02  -1.48168027E-07
   3.75000015E-02  -1.56427731E-07
   3.75749990E-02  -1.64752393E-07
   3.76500003E-02  -1.73134694E-07
   3.77250016E-02  -1.81567088E-07
   3.77999991E-02  -1.90041803E-07
   3.78750004E-02  -1.98550765E-07
   3.79500017E-02  -2.07085733E-07
   3.80249992E-02  -2.15638181E-07
   3.81000005E-02  -2.24199411E-07
   3.81750017E-02  -2.32760442E-07
   3.82499993E-02  -2.41312136E-07
   3.83250006E-02  -2.49845129E-07
   3.84000018E-02  -2.58349786E-07
   3.84749994E-02  -2.66816357E-07
   3.85500006E-02  -2.75234925E-07
   3.86249982E-02  -2.83595284E-07
   3.86999995E-02  -2.91887090E-07
   3.87750007E-02  -3.00099884E-07
   3.88499983E-02  -3.08222951E-07
   3.89249995E-02  -3.16245490E-07
   3.90000008E-02  -3.24156503E-07
   3.90749983E-02  -3.31944932E-07
   3.91499996E-02  -3.39599524E-07
   3.92250009E-02  -3.47108909E-07
   3.92999984E-02  -3.54461662E-07
   3.93749997E-02  -3.61646187E-07
   3.94500010E-02  -3.68650859E-07
   3.95249985E-02  -3.75463941E-07
   3.95999998E-02  -3.82073637E-07
   3.96750011E-02  -3.88468067E-07
   3.97499986E-02  -3.94635407E-07
   3.98249999E-02  -4.00563692E-07
   3.99000011E-02  -4.06241014E-07
   3.99749987E-02  -4.11655407E-07
   4.00500000E-02  -4.16794961E-07
   4.01250012E-02  -4.21647712E-07
   4.01999988E-02  -4.26201780E-07
   4.02750000E-02  -4.30445368E-07
   4.03500013E-02  -4.34366683E-07
   4.04249988E-02  -4.37954014E-07
   4.05000001E-02  -4.41195681E-07
   4.05750014E-02  -4.44080200E-07
   4.06499989E-02  -4.46596175E-07
   4.07250002E-02  -4.48732322E-07
   4.08000015E-02  -4.50477557E-07
   4.08749990E-02  -4.51820881E-07
   4.09500003E-02  -4.52751465E-07
   4.10250016E-02  -4.53258735E-07
   4.10999991E-02  -4.53332291E-07
   4.11750004E-02  -4.52961984E-07
   4.12500016E-02  -4.52137783E-07
   4.13249992E-02  -4.50850024E-07
   4.14000005E-02  -4.49089242E-07
   4.14750017E-02  -4.46846315E-07
   4.15499993E-02  -4.44112374E-07
   4.16250005E-02  -4.40878893E-07
   4.17000018E-02  -4.37137629E-07
   4.17749994E-02  -4.32880654E-07
   4.18500006E-02  -4.28100464E-07
   4.19249982E-02  -4.22789952E-07
   4.19999994E-02  -4.16942214E-07
   4.20750007E-02  -4.10550911E-07
   4.21499982E-02  -4.03610073E-07
   4.22249995E-02  -3.96114132E-07
   4.23000008E-02  -3.88058027E-07
   4.23749983E-02  -3.79437040E-07
   4.24499996E-02  -3.70246994E-07
   4.25250009E-02  -3.60484222E-07
   4.25999984E-02  -3.50145427E-07
   4.26749997E-02  -3.39227938E-07
   4.27500010E-02  -3.27729566E-07
   4.28249985E-02  -3.15648606E-07
   4.28999998E-02  -3.02983949E-07
   4.29750010E-02  -2.89735027E-07
   4.30499986E-02  -2.75901812E-07
   4.31249999E-02  -2.61484843E-07
   4.32000011E-02  -2.46485286E-07
   4.32749987E-02  -2.30904902E-07
   4.33499999E-02  -2.14745981E-07
   4.34250012E-02  -1.98011492E-07
   4.34999987E-02  -1.80704987E-07
   4.35750000E-02  -1.62830688E-07
   4.36500013E-02  -1.44393368E-07
   4.37249988E-02  -1.25398543E-07
   4.38000001E-02  -1.05852301E-07
   4.38750014E-02  -8.57614282E-08
   4.39499989E-02  -6.51333423E-08
   4.40250002E-02  -4.39761259E-08
   4.41000015E-02  -2.22985364E-08
   4.41749990E-02  -1.09998496E-10
   4.42500003E-02   2.25793944E-08
   4.43250015E-02   4.57588776E-08
   4.43999991E-02   6.94169913E-08
   4.44750004E-02   9.35416153E-08
   4.45500016E-02   1.18119949E-07
   4.46249992E-02   1.43138521E-07
   4.47000004E-02   1.68583171E-07
   4.47750017E-02   1.94439082E-07
   4.48499992E-02   2.20690737E-07
   4.49250005E-02   2.47321992E-07
   4.50000018E-02   2.74315994E-07
   4.50749993E-02   3.01655263E-07
   4.51500006E-02   3.29321637E-07
   4.52249981E-02   3.57296358E-07
   4.52999994E-02   3.85559986E-07
   4.53750007E-02   4.14092455E-07
   4.54499982E-02   4.42873016E-07
   4.55249995E-02   4.71880327E-07
   4.56000008E-02   5.01092529E-07
   4.56749983E-02   5.30487057E-07
   4.57499996E-02   5.60040860E-07
   4.58250009E-02   5.89730234E-07
   4.58999984E-02   6.19530908E-07
   4.59749997E-02   6.49418041E-07
   4.60500009E-02   6.79366337E-07
   4.61249985E-02   7.09349990E-07
   4.61999997E-02   7.39342624E-07
   4.62750010E-02   7.69317239E-07
   4.63499986E-02   7.99246664E-07
   4.64249998E-02   8.29102987E-07
   4.65000011E-02   8.58858073E-07
   4.65749986E-02   8.88483328E-07
   4.66499999E-02   9.17949535E-07
   4.67250012E-02   9.47227306E-07
   4.67999987E-02   9.76286969E-07
   4.68750000E-02   1.00509828E-06
   4.69500013E-02   1.03363072E-06
   4.70249988E-02   1.06185371E-06
   4.71000001E-02   1.08973609E-06
   4.71750014E-02   1.11724671E-06
   4.72499989E-02   1.14435397E-06
   4.73250002E-02   1.17102627E-06
   4.74000014E-02   1.19723154E-06
   4.74749990E-02   1.22293795E-06
   4.75500003E-02   1.24811334E-06
   4.76250015E-02   1.27272540E-06
   4.76999991E-02   1.29674174E-06
   4.77750003E-02   1.32012997E-06
   4.78500016E-02   1.34285790E-06
   4.79249991E-02   1.36489302E-06
   4.80000004E-02   1.38620317E-06
   4.80750017E-02   1.40675581E-06
   4.81499992E-02   1.42651879E-06
   4.82250005E-02   1.44546038E-06
   4.83000018E-02   1.46354841E-06
   4.83749993E-02   1.48075128E-06
   4.84500006E-02   1.49703749E-06
   4.85250019E-02   1.51237600E-06
   4.85999994E-02   1.52673556E-06
   4.86750007E-02   1.54008569E-06
   4.87499982E-02   1.55239616E-06
   4.88249995E-02   1.56363706E-06
   4.89000008E-02   1.57377883E-06
   4.89749983E-02   1.58279215E-06
   4.90499996E-02   1.59064871E-06
   4.91250008E-02   1.59732031E-06
   4.91999984E-02   1.60277932E-06
   4.92749996E-02   1.60699869E-06
   4.93500009E-02   1.60995216E-06
   4.94249985E-02   1.61161404E-06
   4.94999997E-02   1.61195885E-06
   4.95750010E-02   1.61096216E-06
   4.96499985E-02   1.60860031E-06
   4.97249998E-02   1.60485024E-06
   4.98000011E-02   1.59968988E-06
   4.98749986E-02   1.59309764E-06
   4.99499999E-02   1.58505293E-06
   5.00250012E-02   1.57553620E-06
   5.00999987E-02   1.56452847E-06
   5.01750000E-02   1.55201201E-06
   5.02500013E-02   1.53796975E-06
   5.03249988E-02   1.52238590E-06
   5.04000001E-02   1.50524534E-06
   5.04750013E-02   1.48653430E-06
   5.05499989E-02   1.46623972E-06
   5.06250001E-02   1.44435012E-06
   5.07000014E-02   1.42085480E-06
   5.07749990E-02   1.39574433E-06
   5.08500002E-02   1.36901031E-06
   5.09250015E-02   1.34064555E-06
   5.09999990E-02   1.31064428E-06
   5.10750003E-02   1.27900171E-06
   5.11500016E-02   1.24571454E-06
   5.12249991E-02   1.21078062E-06
   5.13000004E-02   1.17419916E-06
   5.13750017E-02   1.13597048E-06
   5.14499992E-02   1.09609664E-06
   5.15250005E-02   1.05458071E-06
   5.16000018E-02   1.01142723E-06
   5.16749993E-02   9.66642233E-07
   5.17500006E-02   9.20233049E-07
   5.18250018E-02   8.72208602E-07
   5.18999994E-02   8.22579068E-07
   5.19750006E-02   7.71356099E-07
   5.20499982E-02   7.18552940E-07
   5.21249995E-02   6.64184199E-07
   5.22000007E-02   6.08266078E-07
   5.22749983E-02   5.50816139E-07
   5.23499995E-02   4.91853484E-07
   5.24250008E-02   4.31398917E-07
   5.24999984E-02   3.69474463E-07
   5.25749996E-02   3.06103857E-07
   5.26500009E-02   2.41312364E-07
   5.27249984E-02   1.75126701E-07
   5.27999997E-02   1.07575161E-07
   5.28750010E-02   3.86875776E-08
   5.29499985E-02  -3.15046798E-08
   5.30249998E-02  -1.02968734E-07
   5.31000011E-02  -1.75670138E-07
   5.31749986E-02  -2.49572906E-07
   5.32499999E-02  -3.24639586E-07
   5.33250012E-02  -4.00831141E-07
   5.33999987E-02  -4.78107154E-07
   5.34750000E-02  -5.56425505E-07
   5.35500012E-02  -6.35742708E-07
   5.36249988E-02  -7.16013915E-07
   5.37000000E-02  -7.97192513E-07
   5.37750013E-02  -8.79230527E-07
   5.38499989E-02  -9.62078730E-07
   5.39250001E-02  -1.04568630E-06
   5.40000014E-02  -1.13000112E-06
   5.40749989E-02  -1.21496942E-06
   5.41500002E-02  -1.30053627E-06
   5.42250015E-02  -1.38664541E-06
   5.42999990E-02  -1.47323919E-06
   5.43750003E-02  -1.56025862E-06
   5.44500016E-02  -1.64764344E-06
   5.45249991E-02  -1.73533226E-06
   5.46000004E-02  -1.82326232E-06
   5.46750017E-02  -1.91136974E-06
   5.47499992E-02  -1.99958936E-06
   5.48250005E-02  -2.08785491E-06
   5.49000017E-02  -2.17609909E-06
   5.49749993E-02  -2.26425368E-06
   5.50500005E-02  -2.35224866E-06
   5.51250018E-02  -2.44001421E-06
   5.51999994E-02  -2.52747850E-06
   5.52750006E-02  -2.61456921E-06
   5.53499982E-02  -2.70121291E-06
   5.54249994E-02  -2.78733592E-06
   5.55000007E-02  -2.87286321E-06
   5.55749983E-02  -2.95771906E-06
   5.56499995E-02  -3.04182686E-06
   5.57250008E-02  -3.12510997E-06
   5.57999983E-02  -3.20749041E-06
   5.58749996E-02  -3.28888973E-06
   5.59500009E-02  -3.36922926E-06
   5.60249984E-02  -3.44843011E-06
   5.60999997E-02  -3.52641223E-06
   5.61750010E-02  -3.60309537E-06
   5.62499985E-02  -3.67839948E-06
   5.63249998E-02  -3.75224340E-06
   5.64000010E-02  -3.82454618E-06
   5.64749986E-02  -3.89522756E-06
   5.65499999E-02  -3.96420546E-06
   5.66250011E-02  -4.03139938E-06
   5.66999987E-02  -4.09672748E-06
   5.67749999E-02  -4.16010971E-06
   5.68500012E-02  -4.22146377E-06
   5.69249988E-02  -4.28071007E-06
   5.70000000E-02  -4.33776722E-06
   5.70750013E-02  -4.39255564E-06
   5.71499988E-02  -4.44499528E-06
   5.72250001E-02  -4.49500658E-06
   5.73000014E-02  -4.54251085E-06
   5.73749989E-02  -4.58743034E-06
   5.74500002E-02  -4.62968683E-06
   5.75250015E-02  -4.66920392E-06
   5.75999990E-02  -4.70590567E-06
   5.76750003E-02  -4.73971704E-06
   5.77500015E-02  -4.77056301E-06
   5.78249991E-02  -4.79837126E-06
   5.79000004E-02  -4.82306905E-06
   5.79750016E-02  -4.84458587E-06
   5.80499992E-02  -4.86285126E-06
   5.81250004E-02  -4.87779744E-06
   5.82000017E-02  -4.88935757E-06
   5.82749993E-02  -4.89746481E-06
   5.83500005E-02  -4.90205548E-06
   5.84250018E-02  -4.90306775E-06
   5.84999993E-02  -4.90043976E-06
   5.85750006E-02  -4.89411241E-06
   5.86499982E-02  -4.88402839E-06
   5.87249994E-02  -4.87013222E-06
   5.88000007E-02  -4.85237024E-06
   5.88749982E-02  -4.83069061E-06
   5.89499995E-02  -4.80504423E-06
   5.90250008E-02  -4.77538379E-06
   5.90999983E-02  -4.74166336E-06
   5.91749996E-02  -4.70384157E-06
   5.92500009E-02  -4.66187657E-06
   5.93249984E-02  -4.61573154E-06
   5.93999997E-02  -4.56537055E-06
   5.94750009E-02  -4.51076085E-06
   5.95499985E-02  -4.45187197E-06
   5.96249998E-02  -4.38867619E-06
   5.97000010E-02  -4.32114939E-06
   5.97749986E-02  -4.24926930E-06
   5.98499998E-02  -4.17301726E-06
   5.99250011E-02  -4.09237691E-06
   5.99999987E-02  -4.00733552E-06
   6.00749999E-02  -3.91788353E-06
   6.01500012E-02  -3.82401367E-06
   6.02249987E-02  -3.72572322E-06
   6.03000000E-02  -3.62301125E-06
   6.03750013E-02  -3.51588142E-06
   6.04499988E-02  -3.40434053E-06
   6.05250001E-02  -3.28839792E-06
   6.06000014E-02  -3.16806791E-06
   6.06749989E-02  -3.04336686E-06
   6.07500002E-02  -2.91431570E-06
   6.08250014E-02  -2.78093876E-06
   6.08999990E-02  -2.64326400E-06
   6.09750003E-02  -2.50132302E-06
   6.10500015E-02  -2.35515154E-06
   6.11249991E-02  -2.20478864E-06
   6.12000003E-02  -2.05027709E-06
   6.12750016E-02  -1.89166428E-06
   6.13499992E-02  -1.72900104E-06
   6.14250004E-02  -1.56234205E-06
   6.15000017E-02  -1.39174620E-06
   6.15749992E-02  -1.21727601E-06
   6.16500005E-02  -1.03899822E-06
   6.17250018E-02  -8.56983661E-07
   6.17999993E-02  -6.71307077E-07
   6.18750006E-02  -4.82047142E-07
   6.19499981E-02  -2.89286760E-07
   6.20249994E-02  -9.31127389E-08
   6.21000007E-02   1.06383922E-07
   6.21749982E-02   3.09108316E-07
   6.22499995E-02   5.14961471E-07
   6.23250008E-02   7.23840287E-07
   6.23999983E-02   9.35637672E-07
   6.24749996E-02   1.15024261E-06
   6.25500008E-02   1.36754011E-06
   6.26249984E-02   1.58741091E-06
   6.27000034E-02   1.80973223E-06
   6.27750009E-02   2.03437708E-06
   6.28499985E-02   2.26121438E-06
   6.29250035E-02   2.49011009E-06
   6.30000010E-02   2.72092529E-06
   6.30749986E-02   2.95351811E-06
   6.31500036E-02   3.18774232E-06
   6.32250011E-02   3.42344879E-06
   6.32999986E-02   3.66048425E-06
   6.33750036E-02   3.89869183E-06
   6.34500012E-02   4.13791076E-06
   6.35249987E-02   4.37797871E-06
   6.36000037E-02   4.61872787E-06
   6.36750013E-02   4.85998862E-06
   6.37499988E-02   5.10158725E-06
   6.38249964E-02   5.34334731E-06
   6.39000013E-02   5.58508964E-06
   6.39749989E-02   5.82663097E-06
   6.40499964E-02   6.06778667E-06
   6.41250014E-02   6.30836894E-06
   6.41999990E-02   6.54818768E-06