   0.00000000       0.00000000    
   7.50000036E-05   0.00000000    
   1.50000007E-04   0.00000000    
   2.24999996E-04   0.00000000    
   3.00000014E-04   1.34686672E-25
   3.75000003E-04   1.34643440E-24
   4.49999992E-04   7.28216986E-24
   5.24999981E-04   2.83939723E-23
   6.00000028E-04   8.95274455E-23
   6.75000018E-04   2.42587527E-22
   7.50000007E-04   5.86178986E-22
   8.24999996E-04   1.29444496E-21
   8.99999985E-04   2.65759560E-21
   9.74999974E-04   5.13697538E-21
   1.04999996E-03   9.43779879E-21
   1.12499995E-03   1.66029285E-20
   1.20000006E-03   2.81312785E-20
   1.27500005E-03   4.61251322E-20
   1.35000004E-03   7.34703630E-20
   1.42500002E-03   1.14053770E-19
   1.50000001E-03   1.73022235E-19
   1.57500000E-03   2.57087605E-19
   1.64999999E-03   3.74883889E-19
   1.72499998E-03   5.37380211E-19
   1.79999997E-03   7.58357428E-19
   1.87499996E-03   1.05494562E-18
   1.94999995E-03   1.44823661E-18
   2.02500005E-03   1.96397327E-18
   2.09999993E-03   2.63331625E-18
   2.17500003E-03   3.49369410E-18
   2.24999990E-03   4.58974729E-18
   2.32500001E-03   5.97437194E-18
   2.40000011E-03   7.70984278E-18
   2.47499999E-03   9.86907038E-18
   2.55000009E-03   1.25369264E-17
   2.62499996E-03   1.58116997E-17
   2.70000007E-03   1.98066661E-17
   2.77499994E-03   2.46516780E-17
   2.85000005E-03   3.04950291E-17
   2.92499992E-03   3.75053980E-17
   3.00000003E-03   4.58737361E-17
   3.07499990E-03   5.58154412E-17
   3.15000000E-03   6.75726225E-17
   3.22500011E-03   8.14163304E-17
   3.29999998E-03   9.76490022E-17
   3.37500009E-03   1.16607042E-16
   3.44999996E-03   1.38663449E-16
   3.52500007E-03   1.64230437E-16
   3.59999994E-03   1.93762347E-16
   3.67500004E-03   2.27758557E-16
   3.74999992E-03   2.66766383E-16
   3.82500002E-03   3.11383552E-16
   3.89999989E-03   3.62261804E-16
   3.97500023E-03   4.20109681E-16
   4.05000011E-03   4.85695786E-16
   4.12499998E-03   5.59851456E-16
   4.19999985E-03   6.43473407E-16
   4.27500019E-03   7.37528263E-16
   4.35000006E-03   8.43054328E-16
   4.42499993E-03   9.61163331E-16
   4.49999981E-03   1.09304467E-15
   4.57500014E-03   1.23996783E-15
   4.65000002E-03   1.40328372E-15
   4.72499989E-03   1.58442860E-15
   4.80000023E-03   1.78492500E-15
   4.87500010E-03   2.00638198E-15
   4.94999997E-03   2.25050005E-15
   5.02499985E-03   2.51907175E-15
   5.10000018E-03   2.81397919E-15
   5.17500006E-03   3.13719658E-15
   5.24999993E-03   3.49078816E-15
   5.32499980E-03   3.87691554E-15
   5.40000014E-03   4.29783077E-15
   5.47500001E-03   4.75587104E-15
   5.54999989E-03   5.25347071E-15
   5.62500022E-03   5.79314166E-15
   5.70000010E-03   6.37748131E-15
   5.77499997E-03   7.00917096E-15
   5.84999984E-03   7.69095582E-15
   5.92500018E-03   8.42566712E-15
   6.00000005E-03   9.21619026E-15
   6.07499992E-03   1.00654636E-14
   6.14999980E-03   1.09764865E-14
   6.22500014E-03   1.19523007E-14
   6.30000001E-03   1.29959715E-14
   6.37499988E-03   1.41105957E-14
   6.45000022E-03   1.52992802E-14
   6.52500009E-03   1.65651252E-14
   6.59999996E-03   1.79112232E-14
   6.67499984E-03   1.93406099E-14
   6.75000018E-03   2.08562957E-14
   6.82500005E-03   2.24612741E-14
   6.89999992E-03   2.41584401E-14
   6.97499979E-03   2.59505586E-14
   7.05000013E-03   2.78402942E-14
   7.12500000E-03   2.98301931E-14
   7.19999988E-03   3.19226050E-14
   7.27500021E-03   3.41197339E-14
   7.35000009E-03   3.64235721E-14
   7.42499996E-03   3.88358745E-14
   7.49999983E-03   4.13581556E-14
   7.57500017E-03   4.39915675E-14
   7.65000004E-03   4.67370012E-14
   7.72499992E-03   4.95949988E-14
   7.79999979E-03   5.25657331E-14
   7.87500013E-03   5.56489770E-14
   7.95000046E-03   5.88440429E-14
   8.02499987E-03   6.21497144E-14
   8.10000021E-03   6.55642126E-14
   8.17499962E-03   6.90853285E-14
   8.24999996E-03   7.27102162E-14
   8.32500029E-03   7.64353519E-14
   8.39999970E-03   8.02565615E-14
   8.47500004E-03   8.41688915E-14
   8.55000038E-03   8.81666973E-14
   8.62499978E-03   9.22435414E-14
   8.70000012E-03   9.63921393E-14
   8.77500046E-03   1.00604346E-13
   8.84999987E-03   1.04870905E-13
   8.92500021E-03   1.09181754E-13
   8.99999961E-03   1.13525773E-13
   9.07499995E-03   1.17890818E-13
   9.15000029E-03   1.22263717E-13
   9.22499970E-03   1.26629799E-13
   9.30000003E-03   1.30973357E-13
   9.37500037E-03   1.35277436E-13
   9.44999978E-03   1.39523741E-13
   9.52500012E-03   1.43692824E-13
   9.60000046E-03   1.47763678E-13
   9.67499986E-03   1.51713914E-13
   9.75000020E-03   1.55519586E-13
   9.82499961E-03   1.59155390E-13
   9.89999995E-03   1.62594425E-13
   9.97500028E-03   1.65808244E-13
   1.00499997E-02   1.68766693E-13
   1.01250000E-02   1.71437856E-13
   1.02000004E-02   1.73788515E-13
   1.02749998E-02   1.75783812E-13
   1.03500001E-02   1.77386887E-13
   1.04250005E-02   1.78559194E-13
   1.04999999E-02   1.79260320E-13
   1.05750002E-02   1.79447630E-13
   1.06499996E-02   1.79077727E-13
   1.07249999E-02   1.78105062E-13
   1.08000003E-02   1.76481795E-13
   1.08749997E-02   1.74158959E-13
   1.09500000E-02   1.71085111E-13
   1.10250004E-02   1.67207692E-13
   1.10999998E-02   1.62471910E-13
   1.11750001E-02   1.56820981E-13
   1.12500004E-02   1.50197237E-13
   1.13249999E-02   1.42540832E-13
   1.14000002E-02   1.33790033E-13
   1.14749996E-02   1.23881659E-13
   1.15499999E-02   1.12750758E-13
   1.16250003E-02   1.00331459E-13
   1.16999997E-02   8.65566096E-14
   1.17750000E-02   7.13566169E-14
   1.18500004E-02   5.46613502E-14
   1.19249998E-02   3.63995163E-14
   1.20000001E-02   1.64990905E-14
   1.20750004E-02  -5.11403045E-15
   1.21499998E-02  -2.85152727E-14
   1.22250002E-02  -5.37788062E-14
   1.22999996E-02  -8.09805646E-14
   1.23749999E-02  -1.10197238E-13
   1.24500003E-02  -1.41505270E-13
   1.25249997E-02  -1.74982099E-13
   1.26000000E-02  -2.10705504E-13
   1.26750004E-02  -2.48751865E-13
   1.27499998E-02  -2.89196374E-13
   1.28250001E-02  -3.32117092E-13
   1.29000004E-02  -3.77588884E-13
   1.29749998E-02  -4.25684553E-13
   1.30500002E-02  -4.76479479E-13
   1.31249996E-02  -5.30045951E-13
   1.31999999E-02  -5.86452057E-13
   1.32750003E-02  -6.45766806E-13
   1.33499997E-02  -7.08057853E-13
   1.34250000E-02  -7.73387322E-13
   1.35000004E-02  -8.41816525E-13
   1.35749998E-02  -9.13404877E-13
   1.36500001E-02  -9.88207888E-13
   1.37250004E-02  -1.06627652E-12
   1.37999998E-02  -1.14765738E-12
   1.38750002E-02  -1.23239407E-12
   1.39499996E-02  -1.32052550E-12
   1.40249999E-02  -1.41208573E-12
   1.41000003E-02  -1.50710314E-12
   1.41749997E-02  -1.60560204E-12
   1.42500000E-02  -1.70759771E-12
   1.43250003E-02  -1.81309904E-12
   1.43999998E-02  -1.92211264E-12
   1.44750001E-02  -2.03463678E-12
   1.45500004E-02  -2.15065986E-12
   1.46249998E-02  -2.27016387E-12
   1.47000002E-02  -2.39312129E-12
   1.47749996E-02  -2.51949720E-12
   1.48499999E-02  -2.64924649E-12
   1.49250003E-02  -2.78231886E-12
   1.49999997E-02  -2.91864926E-12
   1.50750000E-02  -3.05816006E-12
   1.51500003E-02  -3.20077016E-12
   1.52249997E-02  -3.34638242E-12
   1.53000001E-02  -3.49488841E-12
   1.53750004E-02  -3.64617104E-12
   1.54499998E-02  -3.80009739E-12
   1.55250002E-02  -3.95652391E-12
   1.55999996E-02  -4.11529144E-12
   1.56750008E-02  -4.27622998E-12
   1.57500003E-02  -4.43915781E-12
   1.58249997E-02  -4.60387154E-12
   1.59000009E-02  -4.77015953E-12
   1.59750003E-02  -4.93779540E-12
   1.60499997E-02  -5.10653022E-12
   1.61249992E-02  -5.27610854E-12
   1.62000004E-02  -5.44625673E-12
   1.62749998E-02  -5.61667770E-12
   1.63499992E-02  -5.78706527E-12
   1.64250005E-02  -5.95709810E-12
   1.64999999E-02  -6.12643400E-12
   1.65749993E-02  -6.29471301E-12
   1.66500006E-02  -6.46155655E-12
   1.67250000E-02  -6.62657212E-12
   1.67999994E-02  -6.78934816E-12
   1.68750007E-02  -6.94945273E-12
   1.69500001E-02  -7.10644260E-12
   1.70249995E-02  -7.25985331E-12
   1.71000008E-02  -7.40919825E-12
   1.71750002E-02  -7.55397741E-12
   1.72499996E-02  -7.69366949E-12
   1.73250008E-02  -7.82773586E-12
   1.74000002E-02  -7.95562140E-12
   1.74749997E-02  -8.07675281E-12
   1.75500009E-02  -8.19054026E-12
   1.76250003E-02  -8.29637400E-12
   1.76999997E-02  -8.39362867E-12
   1.77749991E-02  -8.48166069E-12
   1.78500004E-02  -8.55981258E-12
   1.79249998E-02  -8.62740868E-12
   1.79999992E-02  -8.68375771E-12
   1.80750005E-02  -8.72815362E-12
   1.81499999E-02  -8.75987477E-12
   1.82249993E-02  -8.77818564E-12
   1.83000006E-02  -8.78234031E-12
   1.83750000E-02  -8.77157721E-12
   1.84499994E-02  -8.74512008E-12
   1.85250007E-02  -8.70218394E-12
   1.86000001E-02  -8.64197689E-12
   1.86749995E-02  -8.56369229E-12
   1.87500007E-02  -8.46651482E-12
   1.88250002E-02  -8.34962655E-12
   1.88999996E-02  -8.21220002E-12
   1.89750008E-02  -8.05340256E-12
   1.90500002E-02  -7.87239458E-12
   1.91249996E-02  -7.66833732E-12
   1.92000009E-02  -7.44038945E-12
   1.92750003E-02  -7.18771006E-12
   1.93499997E-02  -6.90945651E-12
   1.94249991E-02  -6.60479223E-12
   1.95000004E-02  -6.27288195E-12
   1.95749998E-02  -5.91289604E-12
   1.96499992E-02  -5.52401267E-12
   1.97250005E-02  -5.10542216E-12
   1.97999999E-02  -4.65632524E-12
   1.98749993E-02  -4.17593477E-12
   1.99500006E-02  -3.66347751E-12
   2.00250000E-02  -3.11819754E-12
   2.00999994E-02  -2.53935436E-12
   2.01750007E-02  -1.92623023E-12
   2.02500001E-02  -1.27813450E-12
   2.03249995E-02  -5.94398174E-13
   2.04000007E-02   1.25624120E-13
   2.04750001E-02   8.82545068E-13
   2.05499995E-02   1.67694537E-12
   2.06250008E-02   2.50936967E-12
   2.07000002E-02   3.38032900E-12
   2.07749996E-02   4.29029642E-12
   2.08500009E-02   5.23970234E-12
   2.09250003E-02   6.22893317E-12
   2.09999997E-02   7.25832675E-12
   2.10749991E-02   8.32817496E-12
   2.11500004E-02   9.43871370E-12
   2.12249998E-02   1.05901277E-11
   2.12999992E-02   1.17825498E-11
   2.13750005E-02   1.30160474E-11
   2.14499999E-02   1.42906216E-11
   2.15249993E-02   1.56062160E-11
   2.16000006E-02   1.69627107E-11
   2.16750000E-02   1.83599073E-11
   2.17499994E-02   1.97975421E-11
   2.18250006E-02   2.12752645E-11
   2.19000001E-02   2.27926567E-11
   2.19749995E-02   2.43492188E-11
   2.20500007E-02   2.59443630E-11
   2.21250001E-02   2.75774195E-11
   2.21999995E-02   2.92476252E-11
   2.22750008E-02   3.09541420E-11
   2.23500002E-02   3.26960334E-11
   2.24249996E-02   3.44722514E-11
   2.25000009E-02   3.62816582E-11
   2.25750003E-02   3.81230152E-11
   2.26499997E-02   3.99949865E-11
   2.27249991E-02   4.18961393E-11
   2.28000004E-02   4.38249229E-11
   2.28749998E-02   4.57796752E-11
   2.29499992E-02   4.77586304E-11
   2.30250005E-02   4.97599080E-11
   2.30999999E-02   5.17815235E-11
   2.31749993E-02   5.38213640E-11
   2.32500006E-02   5.58772160E-11
   2.33250000E-02   5.79467342E-11
   2.33999994E-02   6.00274552E-11
   2.34750006E-02   6.21168048E-11
   2.35500000E-02   6.42120732E-11
   2.36249994E-02   6.63104571E-11
   2.37000007E-02   6.84089937E-11
   2.37750001E-02   7.05046230E-11
   2.38499995E-02   7.25941529E-11
   2.39250008E-02   7.46743015E-11
   2.40000002E-02   7.67416269E-11
   2.40749996E-02   7.87925836E-11
   2.41500009E-02   8.08234729E-11
   2.42250003E-02   8.28304716E-11
   2.42999997E-02   8.48096940E-11
   2.43749991E-02   8.67570807E-11
   2.44500004E-02   8.86684892E-11
   2.45249998E-02   9.05396938E-11
   2.45999992E-02   9.23662813E-11
   2.46750005E-02   9.41437345E-11
   2.47499999E-02   9.58674876E-11
   2.48249993E-02   9.75328082E-11
   2.49000005E-02   9.91348739E-11
   2.49749999E-02   1.00668786E-10
   2.50499994E-02   1.02129541E-10
   2.51250006E-02   1.03512011E-10
   2.52000000E-02   1.04810979E-10
   2.52749994E-02   1.06021164E-10
   2.53500007E-02   1.07137250E-10
   2.54250001E-02   1.08153785E-10
   2.54999995E-02   1.09065222E-10
   2.55750008E-02   1.09865984E-10
   2.56500002E-02   1.10550430E-10
   2.57249996E-02   1.11112862E-10
   2.58000009E-02   1.11547535E-10
   2.58750003E-02   1.11848683E-10
   2.59499997E-02   1.12010450E-10
   2.60249991E-02   1.12027006E-10
   2.61000004E-02   1.11892523E-10
   2.61749998E-02   1.11601027E-10
   2.62499992E-02   1.11146585E-10
   2.63250005E-02   1.10523382E-10
   2.63999999E-02   1.09725506E-10
   2.64749993E-02   1.08747074E-10
   2.65500005E-02   1.07582228E-10
   2.66249999E-02   1.06225209E-10
   2.66999993E-02   1.04670293E-10
   2.67750006E-02   1.02911742E-10
   2.68500000E-02   1.00943892E-10
   2.69249994E-02   9.87611867E-11
   2.70000007E-02   9.63581506E-11
   2.70750001E-02   9.37294131E-11
   2.71499995E-02   9.08696798E-11
   2.72250008E-02   8.77738160E-11
   2.73000002E-02   8.44368325E-11
   2.73749996E-02   8.08538236E-11
   2.74500009E-02   7.70200292E-11
   2.75250003E-02   7.29308350E-11
   2.75999997E-02   6.85819040E-11
   2.76749991E-02   6.39690245E-11
   2.77500004E-02   5.90881996E-11
   2.78249998E-02   5.39356580E-11
   2.78999992E-02   4.85078505E-11
   2.79750004E-02   4.28014568E-11
   2.80499998E-02   3.68133787E-11
   2.81249993E-02   3.05408095E-11
   2.82000005E-02   2.39811972E-11
   2.82749999E-02   1.71323285E-11
   2.83499993E-02   9.99229952E-12
   2.84250006E-02   2.55948041E-12
   2.85000000E-02  -5.16741511E-12
   2.85749994E-02  -1.31893307E-11
   2.86500007E-02  -2.15069421E-11
   2.87250001E-02  -3.01205762E-11
   2.87999995E-02  -3.90299633E-11
   2.88750008E-02  -4.82345275E-11
   2.89500002E-02  -5.77333459E-11
   2.90249996E-02  -6.75250064E-11
   2.91000009E-02  -7.76077952E-11
   2.91750003E-02  -8.79795195E-11
   2.92499997E-02  -9.86374871E-11
   2.93249991E-02  -1.09578548E-10
   2.94000003E-02  -1.20799093E-10
   2.94749998E-02  -1.32295036E-10
   2.95499992E-02  -1.44061804E-10
   2.96250004E-02  -1.56094304E-10
   2.96999998E-02  -1.68386943E-10
   2.97749992E-02  -1.80933588E-10
   2.98500005E-02  -1.93727548E-10
   2.99249999E-02  -2.06761636E-10
   2.99999993E-02  -2.20028093E-10
   3.00750006E-02  -2.33518593E-10
   3.01500000E-02  -2.47224241E-10
   3.02249994E-02  -2.61135641E-10
   3.03000007E-02  -2.75242718E-10
   3.03750001E-02  -2.89534952E-10
   3.04499995E-02  -3.04001158E-10
   3.05250008E-02  -3.18629512E-10
   3.06000002E-02  -3.33407663E-10
   3.06749996E-02  -3.48322649E-10
   3.07500008E-02  -3.63360897E-10
   3.08250003E-02  -3.78508253E-10
   3.08999997E-02  -3.93749894E-10
   3.09749991E-02  -4.09070500E-10
   3.10500003E-02  -4.24454055E-10
   3.11249997E-02  -4.39884129E-10
   3.11999992E-02  -4.55343402E-10
   3.12750004E-02  -4.70814165E-10
   3.13500017E-02  -4.86278129E-10
   3.14249992E-02  -5.01716335E-10
   3.15000005E-02  -5.17109300E-10
   3.15750018E-02  -5.32436928E-10
   3.16499993E-02  -5.47678514E-10
   3.17250006E-02  -5.62812963E-10
   3.18000019E-02  -5.77818515E-10
   3.18749994E-02  -5.92672855E-10
   3.19500007E-02  -6.07353334E-10
   3.20249982E-02  -6.21836527E-10
   3.20999995E-02  -6.36098674E-10
   3.21750008E-02  -6.50115406E-10
   3.22499983E-02  -6.63862076E-10
   3.23249996E-02  -6.77313483E-10
   3.24000008E-02  -6.90443924E-10
   3.24749984E-02  -7.03227421E-10
   3.25499997E-02  -7.15637494E-10
   3.26250009E-02  -7.27647442E-10
   3.26999985E-02  -7.39230177E-10
   3.27749997E-02  -7.50358053E-10
   3.28500010E-02  -7.61003371E-10
   3.29249986E-02  -7.71138153E-10
   3.29999998E-02  -7.80734033E-10
   3.30750011E-02  -7.89762422E-10
   3.31499986E-02  -7.98194566E-10
   3.32249999E-02  -8.06001821E-10
   3.33000012E-02  -8.13154988E-10
   3.33749987E-02  -8.19624979E-10
   3.34500000E-02  -8.25382485E-10
   3.35250013E-02  -8.30398472E-10
   3.35999988E-02  -8.34643521E-10
   3.36750001E-02  -8.38088376E-10
   3.37500013E-02  -8.40704006E-10
   3.38249989E-02  -8.42461434E-10
   3.39000002E-02  -8.43331627E-10
   3.39750014E-02  -8.43285941E-10
   3.40499990E-02  -8.42295900E-10
   3.41250002E-02  -8.40333192E-10
   3.42000015E-02  -8.37369785E-10
   3.42749991E-02  -8.33378144E-10
   3.43500003E-02  -8.28331015E-10
   3.44250016E-02  -8.22201585E-10
   3.44999991E-02  -8.14963597E-10
   3.45750004E-02  -8.06591294E-10
   3.46500017E-02  -7.97059252E-10
   3.47249992E-02  -7.86342880E-10
   3.48000005E-02  -7.74418141E-10
   3.48750018E-02  -7.61261942E-10
   3.49499993E-02  -7.46851581E-10
   3.50250006E-02  -7.31165128E-10
   3.51000018E-02  -7.14181603E-10
   3.51749994E-02  -6.95881130E-10
   3.52500007E-02  -6.76244505E-10
   3.53249982E-02  -6.55253518E-10
   3.53999995E-02  -6.32891017E-10
   3.54750007E-02  -6.09140960E-10
   3.55499983E-02  -5.83988191E-10
   3.56249996E-02  -5.57419222E-10
   3.57000008E-02  -5.29421340E-10
   3.57749984E-02  -4.99983277E-10
   3.58499996E-02  -4.69094985E-10
   3.59250009E-02  -4.36747638E-10
   3.59999985E-02  -4.02934019E-10
   3.60749997E-02  -3.67648190E-10
   3.61500010E-02  -3.30885680E-10
   3.62249985E-02  -2.92643937E-10
   3.62999998E-02  -2.52921795E-10
   3.63750011E-02  -2.11719448E-10
   3.64499986E-02  -1.69038825E-10
   3.65249999E-02  -1.24883701E-10
   3.66000012E-02  -7.92592519E-11
   3.66749987E-02  -3.21729171E-11
   3.67500000E-02   1.63663024E-11
   3.68250012E-02   6.63478994E-11
   3.68999988E-02   1.17758969E-10
   3.69750001E-02   1.70584893E-10
   3.70500013E-02   2.24809144E-10
   3.71249989E-02   2.80413082E-10
   3.72000001E-02   3.37376321E-10
   3.72750014E-02   3.95676492E-10
   3.73499990E-02   4.55288723E-10
   3.74250002E-02   5.16186371E-10
   3.75000015E-02   5.78340931E-10
   3.75749990E-02   6.41721454E-10
   3.76500003E-02   7.06294856E-10
   3.77250016E-02   7.72025999E-10
   3.77999991E-02   8.38877523E-10
   3.78750004E-02   9.06809794E-10
   3.79500017E-02   9.75781345E-10
   3.80249992E-02   1.04574849E-09
   3.81000005E-02   1.11666454E-09
   3.81750017E-02   1.18848131E-09
   3.82499993E-02   1.26114896E-09
   3.83250006E-02   1.33461431E-09
   3.84000018E-02   1.40882250E-09
   3.84749994E-02   1.48371682E-09
   3.85500006E-02   1.55923818E-09
   3.86249982E-02   1.63532499E-09
   3.86999995E-02   1.71191361E-09
   3.87750007E-02   1.78893844E-09
   3.88499983E-02   1.86633176E-09
   3.89249995E-02   1.94402339E-09
   3.90000008E-02   2.02194173E-09
   3.90749983E-02   2.10001327E-09
   3.91499996E-02   2.17816187E-09
   3.92250009E-02   2.25631003E-09
   3.92999984E-02   2.33437802E-09
   3.93749997E-02   2.41228371E-09
   3.94500010E-02   2.48994403E-09
   3.95249985E-02   2.56727395E-09
   3.95999998E-02   2.64418620E-09
   3.96750011E-02   2.72059175E-09
   3.97499986E-02   2.79640111E-09
   3.98249999E-02   2.87152191E-09
   3.99000011E-02   2.94586155E-09
   3.99749987E-02   3.01932568E-09
   4.00500000E-02   3.09181769E-09
   4.01250012E-02   3.16323989E-09
   4.01999988E-02   3.23349347E-09
   4.02750000E-02   3.30247918E-09
   4.03500013E-02   3.37009687E-09
   4.04249988E-02   3.43624484E-09
   4.05000001E-02   3.50081986E-09
   4.05750014E-02   3.56371888E-09
   4.06499989E-02   3.62483821E-09
   4.07250002E-02   3.68407238E-09
   4.08000015E-02   3.74131615E-09
   4.08749990E-02   3.79646448E-09
   4.09500003E-02   3.84941057E-09
   4.10250016E-02   3.90004917E-09
   4.10999991E-02   3.94827326E-09
   4.11750004E-02   3.99397670E-09
   4.12500016E-02   4.03705380E-09
   4.13249992E-02   4.07739842E-09
   4.14000005E-02   4.11490442E-09
   4.14750017E-02   4.14946744E-09
   4.15499993E-02   4.18098267E-09
   4.16250005E-02   4.20934576E-09
   4.17000018E-02   4.23445412E-09
   4.17749994E-02   4.25620561E-09
   4.18500006E-02   4.27449987E-09
   4.19249982E-02   4.28923608E-09
   4.19999994E-02   4.30031566E-09
   4.20750007E-02   4.30764224E-09
   4.21499982E-02   4.31111946E-09
   4.22249995E-02   4.31065406E-09
   4.23000008E-02   4.30615366E-09
   4.23749983E-02   4.29752900E-09
   4.24499996E-02   4.28469127E-09
   4.25250009E-02   4.26755564E-09
   4.25999984E-02   4.24603863E-09
   4.26749997E-02   4.22005897E-09
   4.27500010E-02   4.18953894E-09
   4.28249985E-02   4.15440304E-09
   4.28999998E-02   4.11457890E-09
   4.29750010E-02   4.06999678E-09
   4.30499986E-02   4.02059008E-09
   4.31249999E-02   3.96629574E-09
   4.32000011E-02   3.90705468E-09
   4.32749987E-02   3.84280918E-09
   4.33499999E-02   3.77350728E-09
   4.34250012E-02   3.69910058E-09
   4.34999987E-02   3.61954444E-09
   4.35750000E-02   3.53479757E-09
   4.36500013E-02   3.44482287E-09
   4.37249988E-02   3.34958883E-09
   4.38000001E-02   3.24906657E-09
   4.38750014E-02   3.14323256E-09
   4.39499989E-02   3.03206837E-09
   4.40250002E-02   2.91555913E-09
   4.41000015E-02   2.79369505E-09
   4.41749990E-02   2.66647193E-09
   4.42500003E-02   2.53388954E-09
   4.43250015E-02   2.39595366E-09
   4.43999991E-02   2.25267449E-09
   4.44750004E-02   2.10406759E-09
   4.45500016E-02   1.95015404E-09
   4.46249992E-02   1.79096082E-09
   4.47000004E-02   1.62651981E-09
   4.47750017E-02   1.45686840E-09
   4.48499992E-02   1.28204991E-09
   4.49250005E-02   1.10211340E-09
   4.50000018E-02   9.17113441E-10
   4.50749993E-02   7.27110150E-10
   4.51500006E-02   5.32169531E-10
   4.52249981E-02   3.32363748E-10
   4.52999994E-02   1.27770530E-10
   4.53750007E-02  -8.15260776E-11
   4.54499982E-02  -2.95436176E-10
   4.55249995E-02  -5.13864118E-10
   4.56000008E-02  -7.36708472E-10
   4.56749983E-02  -9.63861435E-10
   4.57499996E-02  -1.19520938E-09
   4.58250009E-02  -1.43063250E-09
   4.58999984E-02  -1.67000525E-09
   4.59749997E-02  -1.91319627E-09
   4.60500009E-02  -2.16006790E-09
   4.61249985E-02  -2.41047671E-09
   4.61999997E-02  -2.66427391E-09
   4.62750010E-02  -2.92130498E-09
   4.63499986E-02  -3.18140825E-09
   4.64249998E-02  -3.44441697E-09
   4.65000011E-02  -3.71015929E-09
   4.65749986E-02  -3.97845712E-09
   4.66499999E-02  -4.24912772E-09
   4.67250012E-02  -4.52198234E-09
   4.67999987E-02  -4.79682694E-09
   4.68750000E-02  -5.07346209E-09
   4.69500013E-02  -5.35168310E-09
   4.70249988E-02  -5.63128078E-09
   4.71000001E-02  -5.91204108E-09
   4.71750014E-02  -6.19374374E-09
   4.72499989E-02  -6.47616538E-09
   4.73250002E-02  -6.75907819E-09
   4.74000014E-02  -7.04224856E-09
   4.74749990E-02  -7.32543981E-09
   4.75500003E-02  -7.60841079E-09
   4.76250015E-02  -7.89091548E-09
   4.76999991E-02  -8.17270696E-09
   4.77750003E-02  -8.45353032E-09
   4.78500016E-02  -8.73312977E-09
   4.79249991E-02  -9.01124686E-09
   4.80000004E-02  -9.28761956E-09
   4.80750017E-02  -9.56198143E-09
   4.81499992E-02  -9.83406334E-09
   4.82250005E-02  -1.01035971E-08
   4.83000018E-02  -1.03703082E-08
   4.83749993E-02  -1.06339213E-08
   4.84500006E-02  -1.08941611E-08
   4.85250019E-02  -1.11507497E-08
   4.85999994E-02  -1.14034053E-08
   4.86750007E-02  -1.16518484E-08
   4.87499982E-02  -1.18957955E-08
   4.88249995E-02  -1.21349668E-08
   4.89000008E-02  -1.23690764E-08
   4.89749983E-02  -1.25978410E-08
   4.90499996E-02  -1.28209763E-08
   4.91250008E-02  -1.30382025E-08
   4.91999984E-02  -1.32492355E-08
   4.92749996E-02  -1.34537936E-08
   4.93500009E-02  -1.36515954E-08
   4.94249985E-02  -1.38423610E-08
   4.94999997E-02  -1.40258125E-08
   4.95750010E-02  -1.42016727E-08
   4.96499985E-02  -1.43696672E-08
   4.97249998E-02  -1.45295269E-08
   4.98000011E-02  -1.46809818E-08
   4.98749986E-02  -1.48237671E-08
   4.99499999E-02  -1.49576174E-08
   5.00250012E-02  -1.50822714E-08
   5.00999987E-02  -1.51974717E-08
   5.01750000E-02  -1.53029731E-08
   5.02500013E-02  -1.53985233E-08
   5.03249988E-02  -1.54838808E-08
   5.04000001E-02  -1.55588058E-08
   5.04750013E-02  -1.56230637E-08
   5.05499989E-02  -1.56764255E-08
   5.06250001E-02  -1.57186690E-08
   5.07000014E-02  -1.57495794E-08
   5.07749990E-02  -1.57689435E-08
   5.08500002E-02  -1.57765552E-08
   5.09250015E-02  -1.57722209E-08
   5.09999990E-02  -1.57557469E-08
   5.10750003E-02  -1.57269486E-08
   5.11500016E-02  -1.56856466E-08
   5.12249991E-02  -1.56316737E-08
   5.13000004E-02  -1.55648667E-08
   5.13750017E-02  -1.54850746E-08
   5.14499992E-02  -1.53921498E-08
   5.15250005E-02  -1.52859556E-08
   5.16000018E-02  -1.51663588E-08
   5.16749993E-02  -1.50332440E-08
   5.17500006E-02  -1.48864983E-08
   5.18250018E-02  -1.47260213E-08
   5.18999994E-02  -1.45517234E-08
   5.19750006E-02  -1.43635166E-08
   5.20499982E-02  -1.41613290E-08
   5.21249995E-02  -1.39451002E-08
   5.22000007E-02  -1.37147769E-08
   5.22749983E-02  -1.34703164E-08
   5.23499995E-02  -1.32116842E-08
   5.24250008E-02  -1.29388615E-08
   5.24999984E-02  -1.26518351E-08
   5.25749996E-02  -1.23506032E-08
   5.26500009E-02  -1.20351773E-08
   5.27249984E-02  -1.17055796E-08
   5.27999997E-02  -1.13618430E-08
   5.28750010E-02  -1.10040110E-08
   5.29499985E-02  -1.06321369E-08
   5.30249998E-02  -1.02462865E-08
   5.31000011E-02  -9.84653514E-09
   5.31749986E-02  -9.43297351E-09
   5.32499999E-02  -9.00570019E-09
   5.33250012E-02  -8.56482973E-09
   5.33999987E-02  -8.11048384E-09
   5.34750000E-02  -7.64279751E-09
   5.35500012E-02  -7.16192083E-09
   5.36249988E-02  -6.66801103E-09
   5.37000000E-02  -6.16123419E-09
   5.37750013E-02  -5.64177016E-09
   5.38499989E-02  -5.10981435E-09
   5.39250001E-02  -4.56557014E-09
   5.40000014E-02  -4.00925293E-09
   5.40749989E-02  -3.44108875E-09
   5.41500002E-02  -2.86131341E-09
   5.42250015E-02  -2.27017471E-09
   5.42999990E-02  -1.66793590E-09
   5.43750003E-02  -1.05486475E-09
   5.44500016E-02  -4.31244762E-10
   5.45249991E-02   2.02627540E-10
   5.46000004E-02   8.46453074E-10
   5.46750017E-02   1.49991763E-09
   5.47499992E-02   2.16269536E-09
   5.48250005E-02   2.83445223E-09
   5.49000017E-02   3.51484575E-09
   5.49749993E-02   4.20352153E-09
   5.50500005E-02   4.90011498E-09
   5.51250018E-02   5.60425173E-09
   5.51999994E-02   6.31554720E-09
   5.52750006E-02   7.03361280E-09
   5.53499982E-02   7.75804665E-09
   5.54249994E-02   8.48843928E-09
   5.55000007E-02   9.22437238E-09
   5.55749983E-02   9.96541960E-09
   5.56499995E-02   1.07111475E-08
   5.57250008E-02   1.14611121E-08
   5.57999983E-02   1.22148656E-08
   5.58749996E-02   1.29719551E-08
   5.59500009E-02   1.37319116E-08
   5.60249984E-02   1.44942636E-08
   5.60999997E-02   1.52585340E-08
   5.61750010E-02   1.60242415E-08
   5.62499985E-02   1.67908940E-08
   5.63249998E-02   1.75579977E-08
   5.64000010E-02   1.83250517E-08
   5.64749986E-02   1.90915532E-08
   5.65499999E-02   1.98569943E-08
   5.66250011E-02   2.06208544E-08
   5.66999987E-02   2.13826183E-08
   5.67749999E-02   2.21417604E-08
   5.68500012E-02   2.28977530E-08
   5.69249988E-02   2.36500703E-08
   5.70000000E-02   2.43981795E-08
   5.70750013E-02   2.51415475E-08
   5.71499988E-02   2.58796380E-08
   5.72250001E-02   2.66119127E-08
   5.73000014E-02   2.73378244E-08
   5.73749989E-02   2.80568351E-08
   5.74500002E-02   2.87684010E-08
   5.75250015E-02   2.94719786E-08
   5.75999990E-02   3.01670227E-08
   5.76750003E-02   3.08529948E-08
   5.77500015E-02   3.15293498E-08
   5.78249991E-02   3.21955405E-08
   5.79000004E-02   3.28510268E-08
   5.79750016E-02   3.34952723E-08
   5.80499992E-02   3.41277335E-08
   5.81250004E-02   3.47478775E-08
   5.82000017E-02   3.53551641E-08
   5.82749993E-02   3.59490677E-08
   5.83500005E-02   3.65290589E-08
   5.84250018E-02   3.70946047E-08
   5.84999993E-02   3.76451901E-08
   5.85750006E-02   3.81802927E-08
   5.86499982E-02   3.86994046E-08
   5.87249994E-02   3.92020070E-08
   5.88000007E-02   3.96876061E-08
   5.88749982E-02   4.01556939E-08
   5.89499995E-02   4.06057765E-08
   5.90250008E-02   4.10373673E-08
   5.90999983E-02   4.14499794E-08
   5.91749996E-02   4.18431405E-08
   5.92500009E-02   4.22163779E-08
   5.93249984E-02   4.25692264E-08
   5.93999997E-02   4.29012310E-08
   5.94750009E-02   4.32119371E-08
   5.95499985E-02   4.35009113E-08
   5.96249998E-02   4.37677095E-08
   5.97000010E-02   4.40119123E-08
   5.97749986E-02   4.42331007E-08
   5.98499998E-02   4.44308590E-08
   5.99250011E-02   4.46047892E-08
   5.99999987E-02   4.47545005E-08
   6.00749999E-02   4.48796129E-08
   6.01500012E-02   4.49797497E-08
   6.02249987E-02   4.50545521E-08
   6.03000000E-02   4.51036577E-08
   6.03750013E-02   4.51267219E-08
   6.04499988E-02   4.51234214E-08
   6.05250001E-02   4.50934223E-08
   6.06000014E-02   4.50364155E-08
   6.06749989E-02   4.49521025E-08
   6.07500002E-02   4.48401885E-08
   6.08250014E-02   4.47003927E-08
   6.08999990E-02   4.45324488E-08
   6.09750003E-02   4.43360939E-08
   6.10500015E-02   4.41110899E-08
   6.11249991E-02   4.38572023E-08
   6.12000003E-02   4.35742074E-08
   6.12750016E-02   4.32619025E-08
   6.13499992E-02   4.29200924E-08
   6.14250004E-02   4.25485851E-08
   6.15000017E-02   4.21472102E-08
   6.15749992E-02   4.17158148E-08
   6.16500005E-02   4.12542498E-08
   6.17250018E-02   4.07623872E-08
   6.17999993E-02   4.02400921E-08
   6.18750006E-02   3.96872828E-08
   6.19499981E-02   3.91038562E-08
   6.20249994E-02   3.84897270E-08
   6.21000007E-02   3.78448348E-08
   6.21749982E-02   3.71691193E-08
   6.22499995E-02   3.64625521E-08
   6.23250008E-02   3.57251047E-08
   6.23999983E-02   3.49567735E-08
   6.24749996E-02   3.41575586E-08
   6.25500008E-02   3.33274919E-08
   6.26249984E-02   3.24665983E-08
   6.27000034E-02   3.15749276E-08
   6.27750009E-02   3.06525472E-08
   6.28499985E-02   2.96995371E-08
   6.29250035E-02   2.87159931E-08
   6.30000010E-02   2.77020327E-08
   6.30749986E-02   2.66577782E-08
   6.31500036E-02   2.55833630E-08
   6.32250011E-02   2.44789398E-08
   6.32999986E-02   2.33446897E-08
   6.33750036E-02   2.21807976E-08
   6.34500012E-02   2.09874642E-08
   6.35249987E-02   1.97649115E-08
   6.36000037E-02   1.85133811E-08
   6.36750013E-02   1.72331269E-08
   6.37499988E-02   1.59244280E-08
   6.38249964E-02   1.45875605E-08
   6.39000013E-02   1.32228157E-08
   6.39749989E-02   1.18305321E-08
   6.40499964E-02   1.04110498E-08
   6.41250014E-02   8.96471875E-09
   6.41999990E-02   7.49190487E-09