   0.00000000       0.00000000    
   2.09999998E-04   0.00000000    
   4.19999997E-04   0.00000000    
   6.30000024E-04   0.00000000    
   8.39999993E-04  -5.17948996E-21
   1.04999996E-03  -5.54837277E-20
   1.26000005E-03  -3.19510325E-19
   1.47000002E-03  -1.32016020E-18
   1.67999999E-03  -4.39135008E-18
   1.88999996E-03  -1.24995999E-17
   2.09999993E-03  -3.15956690E-17
   2.30999989E-03  -7.26998850E-17
   2.52000010E-03  -1.54952594E-16
   2.73000007E-03  -3.09887216E-16
   2.94000003E-03  -5.87196856E-16
   3.15000000E-03  -1.06225417E-15
   3.35999997E-03  -1.84565599E-15
   3.56999994E-03  -3.09503891E-15
   3.77999991E-03  -5.02930641E-15
   3.99000011E-03  -7.94547059E-15
   4.19999985E-03  -1.22380125E-14
   4.41000005E-03  -1.84210320E-14
   4.61999979E-03  -2.71526813E-14
   4.82999999E-03  -3.92615221E-14
   5.04000019E-03  -5.57751714E-14
   5.24999993E-03  -7.79492505E-14
   5.46000013E-03  -1.07297201E-13
   5.66999987E-03  -1.45619790E-13
   5.88000007E-03  -1.95032616E-13
   6.08999981E-03  -2.57990976E-13
   6.30000001E-03  -3.37311071E-13
   6.51000021E-03  -4.36183424E-13
   6.71999995E-03  -5.58181214E-13
   6.93000015E-03  -7.07259229E-13
   7.13999989E-03  -8.87736878E-13
   7.35000009E-03  -1.10427596E-12
   7.55999982E-03  -1.36184412E-12
   7.77000003E-03  -1.66565850E-12
   7.98000023E-03  -2.02110269E-12
   8.19000043E-03  -2.43363706E-12
   8.39999970E-03  -2.90868826E-12
   8.60999990E-03  -3.45149907E-12
   8.82000010E-03  -4.06698503E-12
   9.03000031E-03  -4.75954085E-12
   9.23999958E-03  -5.53283331E-12
   9.44999978E-03  -6.38957030E-12
   9.65999998E-03  -7.33122851E-12
   9.87000018E-03  -8.35780056E-12
   1.00800004E-02  -9.46748149E-12
   1.02899997E-02  -1.06563491E-11
   1.04999999E-02  -1.19180516E-11
   1.07100001E-02  -1.32434567E-11
   1.09200003E-02  -1.46202894E-11
   1.11300005E-02  -1.60327689E-11
   1.13399997E-02  -1.74612772E-11
   1.15499999E-02  -1.88819394E-11
   1.17600001E-02  -2.02664430E-11
   1.19700003E-02  -2.15816427E-11
   1.21799996E-02  -2.27891959E-11
   1.23899998E-02  -2.38453181E-11
   1.26000000E-02  -2.47005558E-11
   1.28100002E-02  -2.52996808E-11
   1.30200004E-02  -2.55816601E-11
   1.32299997E-02  -2.54794588E-11
   1.34399999E-02  -2.49199550E-11
   1.36500001E-02  -2.38242603E-11
   1.38600003E-02  -2.21078190E-11
   1.40699996E-02  -1.96806477E-11
   1.42799998E-02  -1.64477564E-11
   1.44900000E-02  -1.23097409E-11
   1.47000002E-02  -7.16330294E-12
   1.49100004E-02  -9.02085047E-13
   1.51199996E-02   6.58236486E-12
   1.53299998E-02   1.53999279E-11
   1.55400001E-02   2.56605744E-11
   1.57500003E-02   3.74727922E-11
   1.59600005E-02   5.09422157E-11
   1.61700007E-02   6.61702082E-11
   1.63800009E-02   8.32517597E-11
   1.65899992E-02   1.02273363E-10
   1.67999994E-02   1.23311278E-10
   1.70099996E-02   1.46429036E-10
   1.72199998E-02   1.71675146E-10
   1.74300000E-02   1.99080183E-10
   1.76400002E-02   2.28654234E-10
   1.78500004E-02   2.60383964E-10
   1.80600006E-02   2.94229446E-10
   1.82700008E-02   3.30121402E-10
   1.84799992E-02   3.67957803E-10
   1.86899994E-02   4.07600398E-10
   1.88999996E-02   4.48871773E-10
   1.91099998E-02   4.91551522E-10
   1.93200000E-02   5.35373412E-10
   1.95300002E-02   5.80021864E-10
   1.97400004E-02   6.25128616E-10
   1.99500006E-02   6.70270339E-10
   2.01600008E-02   7.14965198E-10
   2.03699991E-02   7.58670515E-10
   2.05799993E-02   8.00780997E-10
   2.07899995E-02   8.40625347E-10
   2.09999997E-02   8.77466766E-10
   2.12099999E-02   9.10501674E-10
   2.14200001E-02   9.38857880E-10
   2.16300003E-02   9.61596469E-10
   2.18400005E-02   9.77712467E-10
   2.20500007E-02   9.86136395E-10
   2.22600009E-02   9.85738491E-10
   2.24699993E-02   9.75332481E-10
   2.26799995E-02   9.53679136E-10
   2.28899997E-02   9.19493814E-10
   2.30999999E-02   8.71452577E-10
   2.33100001E-02   8.08203449E-10
   2.35200003E-02   7.28375860E-10
   2.37300005E-02   6.30592023E-10
   2.39400007E-02   5.13479703E-10
   2.41500009E-02   3.75687426E-10
   2.43599992E-02   2.15904475E-10
   2.45699994E-02   3.28761254E-11
   2.47799996E-02  -1.74578102E-10
   2.49899998E-02  -4.07541861E-10
   2.52000000E-02  -6.66977584E-10
   2.54100002E-02  -9.53704782E-10
   2.56200004E-02  -1.26837019E-09
   2.58300006E-02  -1.61142499E-09
   2.60400008E-02  -1.98309480E-09
   2.62499992E-02  -2.38334841E-09
   2.64599994E-02  -2.81187562E-09
   2.66699996E-02  -3.26805205E-09
   2.68799998E-02  -3.75090936E-09
   2.70900000E-02  -4.25910596E-09
   2.73000002E-02  -4.79089923E-09
   2.75100004E-02  -5.34411893E-09
   2.77200006E-02  -5.91613825E-09
   2.79300008E-02  -6.50384413E-09
   2.81399991E-02  -7.10362036E-09
   2.83499993E-02  -7.71132935E-09
   2.85599995E-02  -8.32229397E-09
   2.87699997E-02  -8.93128238E-09
   2.89799999E-02  -9.53250723E-09
   2.91900001E-02  -1.01196171E-08
   2.94000003E-02  -1.06856932E-08
   2.96100006E-02  -1.12232694E-08
   2.98200008E-02  -1.17243397E-08
   3.00299991E-02  -1.21803865E-08
   3.02399993E-02  -1.25824000E-08
   3.04499995E-02  -1.29209274E-08
   3.06599997E-02  -1.31861091E-08
   3.08699999E-02  -1.33677371E-08
   3.10800001E-02  -1.34553169E-08
   3.12899984E-02  -1.34381413E-08
   3.15000005E-02  -1.33053746E-08
   3.17099988E-02  -1.30461340E-08
   3.19200009E-02  -1.26495987E-08
   3.21299993E-02  -1.21051098E-08
   3.23400013E-02  -1.14022916E-08
   3.25499997E-02  -1.05311813E-08
   3.27600017E-02  -9.48235801E-09
   3.29700001E-02  -8.24707591E-09
   3.31799984E-02  -6.81741419E-09
   3.33900005E-02  -5.18643395E-09
   3.35999988E-02  -3.34833605E-09
   3.38100009E-02  -1.29859057E-09
   3.40199992E-02   9.65876046E-10
   3.42300013E-02   3.44652196E-09
   3.44399996E-02   6.14304829E-09
   3.46500017E-02   9.05323017E-09
   3.48600000E-02   1.21727801E-08
   3.50699984E-02   1.54952033E-08
   3.52800004E-02   1.90116598E-08
   3.54899988E-02   2.27108519E-08
   3.57000008E-02   2.65789115E-08
   3.59099992E-02   3.05993098E-08
   3.61200012E-02   3.47527624E-08
   3.63299996E-02   3.90171984E-08
   3.65400016E-02   4.33677023E-08
   3.67500000E-02   4.77765418E-08
   3.69599983E-02   5.22131423E-08
   3.71700004E-02   5.66441258E-08
   3.73799987E-02   6.10334041E-08
   3.75900008E-02   6.53422774E-08
   3.77999991E-02   6.95295626E-08
   3.80100012E-02   7.35517744E-08
   3.82199995E-02   7.73631967E-08
   3.84300016E-02   8.09163083E-08
   3.86399999E-02   8.41619681E-08
   3.88499983E-02   8.70496919E-08
   3.90600003E-02   8.95279797E-08
   3.92699987E-02   9.15447274E-08
   3.94800007E-02   9.30475892E-08
   3.96899991E-02   9.39843972E-08
   3.99000011E-02   9.43036440E-08
   4.01099995E-02   9.39549309E-08
   4.03200015E-02   9.28895147E-08
   4.05299999E-02   9.10607909E-08
   4.07399982E-02   8.84248621E-08
   4.09500003E-02   8.49410924E-08
   4.11599986E-02   8.05726756E-08
   4.13700007E-02   7.52871543E-08
   4.15799990E-02   6.90570232E-08
   4.17900011E-02   6.18602556E-08
   4.19999994E-02   5.36808891E-08
   4.22100015E-02   4.45095552E-08
   4.24199998E-02   3.43439446E-08
   4.26299982E-02   2.31892994E-08
   4.28400002E-02   1.10588863E-08
   4.30499986E-02  -2.02563299E-09
   4.32600006E-02  -1.60338480E-08
   4.34699990E-02  -3.09262909E-08
   4.36800011E-02  -4.66541543E-08
   4.38899994E-02  -6.31591632E-08
   4.41000015E-02  -8.03734324E-08
   4.43099998E-02  -9.82194308E-08
   4.45200019E-02  -1.16610053E-07
   4.47300002E-02  -1.35448758E-07
   4.49399985E-02  -1.54629660E-07
   4.51500006E-02  -1.74037851E-07
   4.53599989E-02  -1.93549937E-07
   4.55700010E-02  -2.13034340E-07
   4.57799993E-02  -2.32351908E-07
   4.59900014E-02  -2.51356624E-07
   4.61999997E-02  -2.69896361E-07
   4.64100018E-02  -2.87813577E-07
   4.66200002E-02  -3.04946525E-07
   4.68299985E-02  -3.21129875E-07
   4.70400006E-02  -3.36196081E-07
   4.72499989E-02  -3.49976546E-07
   4.74600010E-02  -3.62302700E-07
   4.76699993E-02  -3.73007367E-07
   4.78800014E-02  -3.81925986E-07
   4.80899997E-02  -3.88898314E-07
   4.83000018E-02  -3.93769682E-07
   4.85100001E-02  -3.96391954E-07
   4.87199984E-02  -3.96625779E-07
   4.89300005E-02  -3.94341583E-07
   4.91399989E-02  -3.89420904E-07
   4.93500009E-02  -3.81758127E-07
   4.95599993E-02  -3.71261564E-07
   4.97700013E-02  -3.57855356E-07
   4.99799997E-02  -3.41480131E-07
   5.01900017E-02  -3.22094138E-07
   5.04000001E-02  -2.99675094E-07
   5.06099984E-02  -2.74220440E-07
   5.08200005E-02  -2.45748538E-07
   5.10299988E-02  -2.14299504E-07
   5.12400009E-02  -1.79935782E-07
   5.14499992E-02  -1.42742493E-07
   5.16600013E-02  -1.02827947E-07
   5.18699996E-02  -6.03238419E-08
   5.20800017E-02  -1.53852628E-08
   5.22900000E-02   3.18095630E-08
   5.24999984E-02   8.10597740E-08
   5.27100004E-02   1.32142006E-07
   5.29199988E-02   1.84811427E-07
   5.31300008E-02   2.38802727E-07
   5.33399992E-02   2.93830823E-07
   5.35500012E-02   3.49592312E-07
   5.37599996E-02   4.05767480E-07
   5.39700016E-02   4.62021632E-07
   5.41800000E-02   5.18006118E-07
   5.43899983E-02   5.73361149E-07
   5.46000004E-02   6.27717782E-07
   5.48099987E-02   6.80700396E-07
   5.50200008E-02   7.31928708E-07
   5.52299991E-02   7.81020390E-07
   5.54400012E-02   8.27593567E-07
   5.56499995E-02   8.71269663E-07
   5.58600016E-02   9.11676409E-07
   5.60699999E-02   9.48450065E-07
   5.62799983E-02   9.81238486E-07
   5.64900003E-02   1.00970374E-06
   5.66999987E-02   1.03352545E-06
   5.69100007E-02   1.05240235E-06
   5.71199991E-02   1.06605648E-06
   5.73300011E-02   1.07423455E-06
   5.75399995E-02   1.07671087E-06
   5.77500015E-02   1.07328981E-06
   5.79599999E-02   1.06380742E-06
   5.81699982E-02   1.04813410E-06
   5.83800003E-02   1.02617616E-06
   5.85899986E-02   9.97877123E-07
   5.88000007E-02   9.63219577E-07
   5.90099990E-02   9.22225524E-07
   5.92200011E-02   8.74958403E-07
   5.94299994E-02   8.21522690E-07
   5.96400015E-02   7.62064190E-07
   5.98499998E-02   6.96770883E-07
   6.00599982E-02   6.25872417E-07
   6.02700002E-02   5.49639026E-07
   6.04799986E-02   4.68380961E-07
   6.06900007E-02   3.82447098E-07
   6.08999990E-02   2.92223547E-07
   6.11100011E-02   1.98132255E-07
   6.13199994E-02   1.00628334E-07
   6.15300015E-02   1.97999020E-10
   6.17399998E-02  -1.02643810E-07
   6.19499981E-02  -2.07356734E-07
   6.21600002E-02  -3.13377598E-07
   6.23699985E-02  -4.20124906E-07
   6.25799969E-02  -5.27000793E-07
   6.27899989E-02  -6.33395359E-07
   6.30000010E-02  -7.38691540E-07
   6.32100031E-02  -8.42267070E-07
   6.34199977E-02  -9.43500993E-07
   6.36299998E-02  -1.04177548E-06
   6.38400018E-02  -1.13648025E-06
   6.40499964E-02  -1.22701931E-06
   6.42599985E-02  -1.31281297E-06
   6.44700006E-02  -1.39330245E-06
   6.46800026E-02  -1.46795310E-06
   6.48899972E-02  -1.53625990E-06
   6.50999993E-02  -1.59775186E-06
   6.53100014E-02  -1.65199174E-06
   6.55200034E-02  -1.69858356E-06
   6.57299981E-02  -1.73717604E-06
   6.59400001E-02  -1.76746244E-06
   6.61500022E-02  -1.78918526E-06
   6.63599968E-02  -1.80213885E-06
   6.65699989E-02  -1.80617076E-06
   6.67800009E-02  -1.80118479E-06
   6.69900030E-02  -1.78713947E-06
   6.71999976E-02  -1.76405069E-06
   6.74099997E-02  -1.73199521E-06
   6.76200017E-02  -1.69110888E-06
   6.78299963E-02  -1.64158439E-06
   6.80399984E-02  -1.58367243E-06
   6.82500005E-02  -1.51768188E-06
   6.84600025E-02  -1.44397654E-06
   6.86699972E-02  -1.36297513E-06
   6.88799992E-02  -1.27514818E-06
   6.90900013E-02  -1.18101570E-06
   6.93000033E-02  -1.08114386E-06
   6.95099980E-02  -9.76143610E-07
   6.97200000E-02  -8.66665857E-07
   6.99300021E-02  -7.53396250E-07
   7.01399967E-02  -6.37052722E-07
   7.03499988E-02  -5.18381569E-07
   7.05600008E-02  -3.98150547E-07
   7.07700029E-02  -2.77144721E-07
   7.09799975E-02  -1.56163154E-07
   7.11899996E-02  -3.60114853E-08
   7.14000016E-02   8.25027726E-08
   7.16100037E-02   1.98576018E-07
   7.18199983E-02   3.11413601E-07
   7.20300004E-02   4.20235835E-07
   7.22400025E-02   5.24284019E-07
   7.24499971E-02   6.22824928E-07
   7.26599991E-02   7.15156887E-07
   7.28700012E-02   8.00616021E-07
   7.30800033E-02   8.78580579E-07
   7.32899979E-02   9.48476327E-07
   7.34999999E-02   1.00978150E-06
   7.37100020E-02   1.06202901E-06
   7.39199966E-02   1.10481312E-06
   7.41299987E-02   1.13779788E-06
   7.43400007E-02   1.16071351E-06
   7.45500028E-02   1.17336208E-06
   7.47599974E-02   1.17562229E-06
   7.49699995E-02   1.16744945E-06
   7.51800016E-02   1.14887928E-06
   7.53900036E-02   1.12002840E-06
   7.55999982E-02   1.08109793E-06
   7.58100003E-02   1.03237289E-06
   7.60200024E-02   9.74220711E-07
   7.62299970E-02   9.07093408E-07
   7.64399990E-02   8.31525711E-07
   7.66500011E-02   7.48132663E-07
   7.68600032E-02   6.57609633E-07
   7.70699978E-02   5.60732417E-07
   7.72799999E-02   4.58344545E-07
   7.74900019E-02   3.51361990E-07
   7.76999965E-02   2.40774256E-07
   7.79099986E-02   1.27627885E-07
   7.81200007E-02   1.30263391E-08
   7.83300027E-02  -1.01868103E-07
   7.85399973E-02  -2.15848772E-07
   7.87499994E-02  -3.27672922E-07
   7.89600015E-02  -4.36057064E-07
   7.91700035E-02  -5.39691882E-07
   7.93799981E-02  -6.37257017E-07
   7.95900002E-02  -7.27417330E-07
   7.98000023E-02  -8.08826087E-07
   8.00099969E-02  -8.80136213E-07
   8.02199990E-02  -9.40024563E-07
   8.04300010E-02  -9.87185899E-07
   8.06400031E-02  -1.02033755E-06
   8.08499977E-02  -1.03824345E-06
   8.10599998E-02  -1.03970717E-06
   8.12700018E-02  -1.02359184E-06
   8.14799964E-02  -9.88825150E-07
   8.16899985E-02  -9.34407581E-07
   8.19000006E-02  -8.59425313E-07
   8.21100026E-02  -7.63053606E-07
   8.23199973E-02  -6.44560942E-07
   8.25299993E-02  -5.03321075E-07
   8.27400014E-02  -3.38830233E-07
   8.29500034E-02  -1.50702007E-07
   8.31599981E-02   6.13235471E-08
   8.33700001E-02   2.97368302E-07
   8.35800022E-02   5.57411397E-07
   8.37899968E-02   8.41291921E-07
   8.39999989E-02   1.14869397E-06
   8.42100009E-02   1.47914375E-06
   8.44200030E-02   1.83201121E-06
   8.46299976E-02   2.20650531E-06
   8.48399997E-02   2.60166530E-06
   8.50500017E-02   3.01635941E-06
   8.52599964E-02   3.44929867E-06
   8.54699984E-02   3.89902198E-06
   8.56800005E-02   4.36389428E-06
   8.58900025E-02   4.84211841E-06
   8.60999972E-02   5.33173852E-06
   8.63099992E-02   5.83063547E-06
   8.65200013E-02   6.33653235E-06
   8.67300034E-02   6.84700171E-06
   8.69399980E-02   7.35946833E-06
   8.71500000E-02   7.87121826E-06
   8.73600021E-02   8.37940479E-06
   8.75699967E-02   8.88105933E-06
   8.77799988E-02   9.37309778E-06
   8.79900008E-02   9.85232509E-06
   8.82000029E-02   1.03154562E-05
   8.84099975E-02   1.07591241E-05
   8.86199996E-02   1.11798918E-05
   8.88300017E-02   1.15742614E-05
   8.90400037E-02   1.19386914E-05
   8.92499983E-02   1.22696010E-05
   8.94600004E-02   1.25634033E-05
   8.96700025E-02   1.28165066E-05
   8.98799971E-02   1.30253266E-05
   9.00899991E-02   1.31863126E-05
   9.03000012E-02   1.32959631E-05
   9.05100033E-02   1.33508365E-05
   9.07199979E-02   1.33475742E-05
   9.09299999E-02   1.32829155E-05
   9.11400020E-02   1.31537035E-05
   9.13499966E-02   1.29569244E-05
   9.15599987E-02   1.26897103E-05
   9.17700008E-02   1.23493573E-05
   9.19800028E-02   1.19333381E-05
   9.21899974E-02   1.14393324E-05
   9.23999995E-02   1.08652303E-05
   9.26100016E-02   1.02091635E-05
   9.28200036E-02   9.46952059E-06
   9.30299982E-02   8.64493632E-06
   9.32400003E-02   7.73432293E-06
   9.34500024E-02   6.73690511E-06
   9.36599970E-02   5.65220353E-06
   9.38699991E-02   4.48006313E-06
   9.40800011E-02   3.22065875E-06
   9.42900032E-02   1.87451997E-06
   9.44999978E-02   4.42535537E-07
   9.47099999E-02  -1.07405413E-06
   9.49200019E-02  -2.67361588E-06
   9.51299965E-02  -4.35415086E-06
   9.53399986E-02  -6.11327596E-06
   9.55500007E-02  -7.94819425E-06
   9.57600027E-02  -9.85568295E-06
   9.59699973E-02  -1.18321504E-05
   9.61799994E-02  -1.38736123E-05
   9.63900015E-02  -1.59756291E-05
   9.66000035E-02  -1.81333471E-05
   9.68099982E-02  -2.03415184E-05
   9.70200002E-02  -2.25945041E-05
   9.72300023E-02  -2.48862252E-05
   9.74399969E-02  -2.72102116E-05
   9.76499990E-02  -2.95596474E-05
   9.78600010E-02  -3.19272658E-05
   9.80700031E-02  -3.43054198E-05
   9.82799977E-02  -3.66861386E-05
   9.84899998E-02  -3.90610694E-05
   9.87000018E-02  -4.14215065E-05
   9.89099964E-02  -4.37584276E-05
   9.91199985E-02  -4.60624833E-05
   9.93300006E-02  -4.83240256E-05
   9.95400026E-02  -5.05331336E-05
   9.97499973E-02  -5.26796139E-05
   9.99599993E-02  -5.47530290E-05
  0.100170001      -5.67427342E-05
  0.100380003      -5.86379065E-05
  0.100589998      -6.04275192E-05
  0.100800000      -6.21004074E-05
  0.101010002      -6.36453187E-05
  0.101219997      -6.50509028E-05
  0.101429999      -6.63057508E-05
  0.101640001      -6.73984323E-05
  0.101850003      -6.83175385E-05
  0.102059998      -6.90516972E-05
  0.102270000      -6.95896306E-05
  0.102480002      -6.99201555E-05
  0.102689996      -7.00322926E-05
  0.102899998      -6.99152442E-05
  0.103110000      -6.95584531E-05
  0.103320003      -6.89516673E-05
  0.103529997      -6.80849116E-05
  0.103739999      -6.69486326E-05
  0.103950001      -6.55336698E-05
  0.104160003      -6.38313650E-05
  0.104369998      -6.18335180E-05
  0.104580000      -5.95325400E-05
  0.104790002      -5.69214135E-05
  0.104999997      -5.39937864E-05
  0.105209999      -5.07440309E-05
  0.105420001      -4.71672538E-05
  0.105630003      -4.32594206E-05
  0.105839998      -3.90173009E-05
  0.106050000      -3.44385699E-05
  0.106260002      -2.95218670E-05
  0.106470004      -2.42668466E-05
  0.106679998      -1.86741909E-05
  0.106890000      -1.27456287E-05
  0.107100002      -6.48410469E-06
  0.107309997       1.06213399E-07
  0.107519999       7.02000625E-06
  0.107730001       1.42506779E-05
  0.107940003       2.17902834E-05
  0.108149998       2.96295602E-05
  0.108360000       3.77578508E-05
  0.108570002       4.61631207E-05
  0.108779997       5.48318894E-05
  0.108989999       6.37492121E-05
  0.109200001       7.28986124E-05
  0.109410003       8.22621732E-05
  0.109619997       9.18204605E-05
  0.109830000       1.01552439E-04
  0.110040002       1.11435613E-04
  0.110250004       1.21445948E-04
  0.110459998       1.31557885E-04
  0.110670000       1.41744342E-04
  0.110880002       1.51976681E-04
  0.111089997       1.62224838E-04
  0.111299999       1.72457265E-04
  0.111510001       1.82640928E-04
  0.111720003       1.92741500E-04
  0.111929998       2.02723197E-04
  0.112140000       2.12548985E-04
  0.112350002       2.22180548E-04
  0.112559997       2.31578393E-04
  0.112769999       2.40701876E-04
  0.112980001       2.49509263E-04
  0.113190003       2.57957872E-04
  0.113399997       2.66004179E-04
  0.113609999       2.73603800E-04
  0.113820001       2.80711596E-04
  0.114030004       2.87281844E-04
  0.114239998       2.93268327E-04
  0.114450000       2.98624363E-04
  0.114660002       3.03303066E-04
  0.114869997       3.07257316E-04
  0.115079999       3.10440082E-04
  0.115290001       3.12804419E-04
  0.115500003       3.14303470E-04
  0.115709998       3.14890844E-04
  0.115920000       3.14520672E-04
  0.116130002       3.13147699E-04
  0.116339996       3.10727482E-04
  0.116549999       3.07216629E-04
  0.116760001       3.02572764E-04
  0.116970003       2.96754733E-04
  0.117179997       2.89722957E-04
  0.117389999       2.81439367E-04
  0.117600001       2.71867582E-04
  0.117810003       2.60973204E-04
  0.118019998       2.48723867E-04
  0.118230000       2.35089377E-04
  0.118440002       2.20041984E-04
  0.118649997       2.03556439E-04
  0.118859999       1.85610130E-04
  0.119070001       1.66183265E-04
  0.119280003       1.45259051E-04
  0.119489998       1.22823854E-04
  0.119700000       9.88672618E-05
  0.119910002       7.33821726E-05
  0.120119996       4.63650103E-05
  0.120329998       1.78158534E-05
  0.120540000      -1.22614993E-05
  0.120750003      -4.38594325E-05
  0.120959997      -7.69663602E-05
  0.121169999      -1.11566653E-04
  0.121380001      -1.47640574E-04
  0.121590003      -1.85164172E-04
  0.121799998      -2.24109201E-04
  0.122010000      -2.64443166E-04
  0.122220002      -3.06129135E-04
  0.122429997      -3.49125796E-04
  0.122639999      -3.93387279E-04
  0.122850001      -4.38863324E-04
  0.123060003      -4.85499273E-04
  0.123269998      -5.33236016E-04
  0.123480000      -5.82009729E-04
  0.123690002      -6.31752424E-04
  0.123899996      -6.82391634E-04
  0.124109998      -7.33850349E-04
  0.124320000      -7.86047429E-04
  0.124530002      -8.38897598E-04
  0.124739997      -8.92311393E-04
  0.124949999      -9.46195039E-04
  0.125159994      -1.00045104E-03
  0.125369996      -1.05497788E-03
  0.125579998      -1.10967061E-03
  0.125790000      -1.16442039E-03
  0.126000002      -1.21911487E-03
  0.126210004      -1.27363903E-03
  0.126420006      -1.32787414E-03
  0.126629993      -1.38169876E-03
  0.126839995      -1.43498869E-03
  0.127049997      -1.48761715E-03
  0.127260000      -1.53945503E-03
  0.127470002      -1.59037090E-03
  0.127680004      -1.64023170E-03
  0.127890006      -1.68890273E-03
  0.128099993      -1.73624756E-03
  0.128309995      -1.78212894E-03
  0.128519997      -1.82640820E-03
  0.128729999      -1.86894613E-03
  0.128940001      -1.90960336E-03
  0.129150003      -1.94824056E-03
  0.129360005      -1.98471826E-03
  0.129570007      -2.01889710E-03
  0.129779994      -2.05063866E-03
  0.129989997      -2.07980559E-03
  0.130199999      -2.10626167E-03
  0.130410001      -2.12987303E-03
  0.130620003      -2.15050648E-03
  0.130830005      -2.16803164E-03
  0.131040007      -2.18231999E-03
  0.131249994      -2.19324674E-03
  0.131459996      -2.20068940E-03
  0.131669998      -2.20452878E-03
  0.131880000      -2.20464962E-03
  0.132090002      -2.20094086E-03
  0.132300004      -2.19329493E-03
  0.132510006      -2.18160893E-03
  0.132719994      -2.16578506E-03
  0.132929996      -2.14573042E-03
  0.133139998      -2.12135725E-03
  0.133350000      -2.09258357E-03
  0.133560002      -2.05933279E-03
  0.133770004      -2.02153460E-03
  0.133980006      -1.97912543E-03
  0.134189993      -1.93204789E-03
  0.134399995      -1.88025134E-03
  0.134609997      -1.82369270E-03
  0.134819999      -1.76233542E-03
  0.135030001      -1.69615087E-03
  0.135240003      -1.62511773E-03
  0.135450006      -1.54922286E-03
  0.135659993      -1.46846101E-03
  0.135869995      -1.38283521E-03
  0.136079997      -1.29235676E-03
  0.136289999      -1.19704544E-03
  0.136500001      -1.09692954E-03
  0.136710003      -9.92046669E-04
  0.136920005      -8.82442866E-04
  0.137130007      -7.68173079E-04
  0.137339994      -6.49301975E-04
  0.137549996      -5.25902840E-04
  0.137759998      -3.98058357E-04
  0.137970001      -2.65860494E-04
  0.138180003      -1.29410735E-04
  0.138390005       1.11804220E-05
  0.138600007       1.55792906E-04
  0.138809994       3.04297166E-04
  0.139019996       4.56554466E-04
  0.139229998       6.12416829E-04
  0.139440000       7.71726714E-04
  0.139650002       9.34317533E-04
  0.139860004       1.10001373E-03
  0.140070006       1.26863073E-03
  0.140279993       1.43997464E-03
  0.140489995       1.61384314E-03
  0.140699998       1.79002516E-03
  0.140910000       1.96830137E-03
  0.141120002       2.14844383E-03
  0.141330004       2.33021658E-03
  0.141540006       2.51337606E-03
  0.141749993       2.69767130E-03
  0.141959995       2.88284337E-03
  0.142169997       3.06862639E-03
  0.142379999       3.25474772E-03
  0.142590001       3.44092818E-03
  0.142800003       3.62688233E-03
  0.143010005       3.81232006E-03
  0.143220007       3.99694499E-03
  0.143429995       4.18045558E-03
  0.143639997       4.36254544E-03
  0.143849999       4.54290444E-03
  0.144060001       4.72121872E-03
  0.144270003       4.89717117E-03
  0.144480005       5.07044094E-03
  0.144690007       5.24070626E-03
  0.144899994       5.40764257E-03
  0.145109996       5.57092391E-03
  0.145319998       5.73022431E-03
  0.145530000       5.88521734E-03
  0.145740002       6.03557564E-03
  0.145950004       6.18097512E-03
  0.146160007       6.32109167E-03
  0.146369994       6.45560259E-03
  0.146579996       6.58418890E-03
  0.146789998       6.70653582E-03
  0.147000000       6.82233088E-03
  0.147210002       6.93126628E-03
  0.147420004       7.03304028E-03
  0.147630006       7.12735532E-03
  0.147839993       7.21392268E-03
  0.148049995       7.29245786E-03
  0.148259997       7.36268656E-03
  0.148469999       7.42434012E-03
  0.148680001       7.47716054E-03
  0.148890004       7.52090011E-03
  0.149100006       7.55531853E-03
  0.149309993       7.58018857E-03
  0.149519995       7.59529276E-03
  0.149729997       7.60042574E-03
  0.149939999       7.59539520E-03
  0.150150001       7.58002046E-03
  0.150360003       7.55413575E-03
  0.150570005       7.51758832E-03
  0.150780007       7.47024035E-03
  0.150989994       7.41196796E-03
  0.151199996       7.34266266E-03
  0.151409999       7.26223225E-03
  0.151620001       7.17060035E-03
  0.151830003       7.06770783E-03
  0.152040005       6.95351232E-03
  0.152250007       6.82798726E-03
  0.152459994       6.69112429E-03
  0.152669996       6.54293271E-03
  0.152879998       6.38343953E-03
  0.153090000       6.21269131E-03
  0.153300002       6.03075093E-03
  0.153510004       5.83770173E-03
  0.153720006       5.63364290E-03
  0.153929994       5.41869551E-03
  0.154139996       5.19299787E-03
  0.154349998       4.95670550E-03
  0.154560000       4.70999395E-03
  0.154770002       4.45305882E-03
  0.154980004       4.18611197E-03
  0.155190006       3.90938437E-03
  0.155399993       3.62312584E-03
  0.155609995       3.32760299E-03
  0.155819997       3.02310125E-03
  0.156029999       2.70992354E-03
  0.156240001       2.38839025E-03
  0.156450003       2.05883803E-03
  0.156660005       1.72162103E-03
  0.156869993       1.37710874E-03
  0.157079995       1.02568627E-03
  0.157289997       6.67755376E-04
  0.157499999       3.03732959E-04
  0.157710001      -6.59507205E-05
  0.157920003      -4.40851407E-04
  0.158130005      -8.20511952E-04
  0.158340007      -1.20446237E-03
  0.158549994      -1.59221911E-03
  0.158759996      -1.98328844E-03
  0.158969998      -2.37716595E-03
  0.159180000      -2.77333590E-03
  0.159390002      -3.17127490E-03
  0.159600005      -3.57045070E-03
  0.159810007      -3.97032220E-03
  0.160019994      -4.37034247E-03
  0.160229996      -4.76995762E-03
  0.160439998      -5.16860699E-03
  0.160650000      -5.56572480E-03
  0.160860002      -5.96074527E-03
  0.161070004      -6.35309936E-03
  0.161280006      -6.74221339E-03
  0.161489993      -7.12751504E-03
  0.161699995      -7.50843110E-03
  0.161909997      -7.88438693E-03
  0.162120000      -8.25481303E-03
  0.162330002      -8.61914176E-03
  0.162540004      -8.97681061E-03
  0.162750006      -9.32725798E-03
  0.162959993      -9.66993161E-03
  0.163169995      -1.00042801E-02
  0.163379997      -1.03297653E-02
  0.163589999      -1.06458571E-02
  0.163800001      -1.09520331E-02
  0.164010003      -1.12477839E-02
  0.164220005      -1.15326112E-02
  0.164430007      -1.18060270E-02
  0.164639995      -1.20675564E-02
  0.164849997      -1.23167429E-02
  0.165059999      -1.25531415E-02
  0.165270001      -1.27763245E-02
  0.165480003      -1.29858823E-02
  0.165690005      -1.31814228E-02
  0.165900007      -1.33625725E-02
  0.166109994      -1.35289785E-02
  0.166319996      -1.36803044E-02
  0.166529998      -1.38162393E-02
  0.166740000      -1.39364945E-02
  0.166950002      -1.40407989E-02
  0.167160004      -1.41289113E-02
  0.167370006      -1.42006110E-02
  0.167579994      -1.42557025E-02
  0.167789996      -1.42940171E-02
  0.167999998      -1.43154096E-02
  0.168210000      -1.43197645E-02
  0.168420002      -1.43069914E-02
  0.168630004      -1.42770233E-02
  0.168840006      -1.42298238E-02
  0.169049993      -1.41653782E-02
  0.169259995      -1.40837030E-02
  0.169469997      -1.39848450E-02
  0.169679999      -1.38688758E-02
  0.169890001      -1.37358988E-02
  0.170100003      -1.35860415E-02
  0.170310006      -1.34194614E-02
  0.170519993      -1.32363457E-02
  0.170729995      -1.30369030E-02
  0.170939997      -1.28213745E-02
  0.171149999      -1.25900283E-02
  0.171360001      -1.23431608E-02
  0.171570003      -1.20810922E-02
  0.171780005      -1.18041653E-02
  0.171990007      -1.15127498E-02
  0.172199994      -1.12072397E-02
  0.172409996      -1.08880522E-02
  0.172619998      -1.05556315E-02
  0.172830001      -1.02104424E-02
  0.173040003      -9.85297188E-03
  0.173250005      -9.48372204E-03
  0.173460007      -9.10321996E-03
  0.173669994      -8.71201418E-03
  0.173879996      -8.31066817E-03
  0.174089998      -7.89976399E-03
  0.174300000      -7.47990049E-03
  0.174510002      -7.05169048E-03
  0.174720004      -6.61576167E-03
  0.174930006      -6.17274875E-03
  0.175139993      -5.72329899E-03
  0.175349995      -5.26807504E-03
  0.175559998      -4.80775256E-03
  0.175770000      -4.34300303E-03
  0.175980002      -3.87450494E-03
  0.176190004      -3.40294465E-03
  0.176400006      -2.92900763E-03
  0.176609993      -2.45338748E-03
  0.176819995      -1.97678106E-03
  0.177029997      -1.49988115E-03
  0.177239999      -1.02337496E-03
  0.177450001      -5.47951611E-04
  0.177660003      -7.43007258E-05
  0.177870005       3.96909600E-04
  0.178080007       8.65012000E-04
  0.178289995       1.32934074E-03
  0.178499997       1.78924645E-03
  0.178709999       2.24408507E-03
  0.178920001       2.69322423E-03
  0.179130003       3.13604786E-03
  0.179340005       3.57195665E-03
  0.179550007       4.00035689E-03
  0.179759994       4.42067580E-03