   0.00000000       0.00000000    
   2.09999998E-04   0.00000000    
   4.19999997E-04   0.00000000    
   6.30000024E-04   0.00000000    
   8.39999993E-04   3.48177856E-18
   1.04999996E-03   3.51987552E-17
   1.26000005E-03   1.92130829E-16
   1.47000002E-03   7.55058510E-16
   1.67999999E-03   2.39731881E-15
   1.88999996E-03   6.53691705E-15
   2.09999993E-03   1.58882967E-14
   2.30999989E-03   3.52807315E-14
   2.52000010E-03   7.28217264E-14
   2.73000007E-03   1.41495390E-13
   2.94000003E-03   2.61298172E-13
   3.15000000E-03   4.62027226E-13
   3.35999997E-03   7.86848939E-13
   3.56999994E-03   1.29678711E-12
   3.77999991E-03   2.07628229E-12
   3.99000011E-03   3.23998185E-12
   4.19999985E-03   4.94092874E-12
   4.41000005E-03   7.38031598E-12
   4.61999979E-03   1.08189811E-11
   4.82999999E-03   1.55907787E-11
   5.04000019E-03   2.21180088E-11
   5.24999993E-03   3.09289851E-11
   5.46000013E-03   4.26778266E-11
   5.66999987E-03   5.81664959E-11
   5.88000007E-03   7.83690612E-11
   6.08999981E-03   1.04458095E-10
   6.30000001E-03   1.37832967E-10
   6.51000021E-03   1.80149534E-10
   6.71999995E-03   2.33351199E-10
   6.93000015E-03   2.99700431E-10
   7.13999989E-03   3.81809834E-10
   7.35000009E-03   4.82672347E-10
   7.55999982E-03   6.05688943E-10
   7.77000003E-03   7.54692864E-10
   7.98000023E-03   9.33968791E-10
   8.19000043E-03   1.14826471E-09
   8.39999970E-03   1.40279588E-09
   8.60999990E-03   1.70323722E-09
   8.82000010E-03   2.05570272E-09
   9.03000031E-03   2.46670995E-09
   9.23999958E-03   2.94312552E-09
   9.44999978E-03   3.49209173E-09
   9.65999998E-03   4.12092671E-09
   9.87000018E-03   4.83700369E-09
   1.00800004E-02   5.64759528E-09
   1.02899997E-02   6.55969679E-09
   1.04999999E-02   7.57980434E-09
   1.07100001E-02   8.71367245E-09
   1.09200003E-02   9.96602445E-09
   1.11300005E-02   1.13402336E-08
   1.13399997E-02   1.28379654E-08
   1.15499999E-02   1.44587862E-08
   1.17600001E-02   1.61997349E-08
   1.19700003E-02   1.80548625E-08
   1.21799996E-02   2.00147472E-08
   1.23899998E-02   2.20659828E-08
   1.26000000E-02   2.41906566E-08
   1.28100002E-02   2.63657967E-08
   1.30200004E-02   2.85628410E-08
   1.32299997E-02   3.07470955E-08
   1.34399999E-02   3.28772209E-08
   1.36500001E-02   3.49047440E-08
   1.38600003E-02   3.67736135E-08
   1.40699996E-02   3.84197989E-08
   1.42799998E-02   3.97710131E-08
   1.44900000E-02   4.07464498E-08
   1.47000002E-02   4.12566834E-08
   1.49100004E-02   4.12036876E-08
   1.51199996E-02   4.04809519E-08
   1.53299998E-02   3.89738481E-08
   1.55400001E-02   3.65600634E-08
   1.57500003E-02   3.31103145E-08
   1.59600005E-02   2.84892376E-08
   1.61700007E-02   2.25564971E-08
   1.63800009E-02   1.51681778E-08
   1.65899992E-02   6.17834539E-09
   1.67999994E-02  -4.55905891E-09
   1.70099996E-02  -1.71880874E-08
   1.72199998E-02  -3.18484084E-08
   1.74300000E-02  -4.86726748E-08
   1.76400002E-02  -6.77836027E-08
   1.78500004E-02  -8.92908218E-08
   1.80600006E-02  -1.13287506E-07
   1.82700008E-02  -1.39846861E-07
   1.84799992E-02  -1.69018278E-07
   1.86899994E-02  -2.00823521E-07
   1.88999996E-02  -2.35252713E-07
   1.91099998E-02  -2.72260280E-07
   1.93200000E-02  -3.11760886E-07
   1.95300002E-02  -3.53625353E-07
   1.97400004E-02  -3.97676956E-07
   1.99500006E-02  -4.43687469E-07
   2.01600008E-02  -4.91373726E-07
   2.03699991E-02  -5.40394637E-07
   2.05799993E-02  -5.90348066E-07
   2.07899995E-02  -6.40768974E-07
   2.09999997E-02  -6.91127184E-07
   2.12099999E-02  -7.40826806E-07
   2.14200001E-02  -7.89205387E-07
   2.16300003E-02  -8.35534649E-07
   2.18400005E-02  -8.79021627E-07
   2.20500007E-02  -9.18810940E-07
   2.22600009E-02  -9.53988206E-07
   2.24699993E-02  -9.83584300E-07
   2.26799995E-02  -1.00658065E-06
   2.28899997E-02  -1.02191598E-06
   2.30999999E-02  -1.02849447E-06
   2.33100001E-02  -1.02519414E-06
   2.35200003E-02  -1.01087778E-06
   2.37300005E-02  -9.84403869E-07
   2.39400007E-02  -9.44639680E-07
   2.41500009E-02  -8.90474837E-07
   2.43599992E-02  -8.20835908E-07
   2.45699994E-02  -7.34702610E-07
   2.47799996E-02  -6.31124124E-07
   2.49899998E-02  -5.09237054E-07
   2.52000000E-02  -3.68283111E-07
   2.54100002E-02  -2.07627565E-07
   2.56200004E-02  -2.67781672E-08
   2.58300006E-02   1.74596195E-07
   2.60400008E-02   3.96646271E-07
   2.62499992E-02   6.39324412E-07
   2.64599994E-02   9.02367219E-07
   2.66699996E-02   1.18527805E-06
   2.68799998E-02   1.48731124E-06
   2.70900000E-02   1.80745872E-06
   2.73000002E-02   2.14443639E-06
   2.75100004E-02   2.49667323E-06
   2.77200006E-02   2.86230420E-06
   2.79300008E-02   3.23916242E-06
   2.81399991E-02   3.62477704E-06
   2.83499993E-02   4.01637317E-06
   2.85599995E-02   4.41087377E-06
   2.87699997E-02   4.80490826E-06
   2.89799999E-02   5.19481910E-06
   2.91900001E-02   5.57667818E-06
   2.94000003E-02   5.94630365E-06
   2.96100006E-02   6.29928354E-06
   2.98200008E-02   6.63099627E-06
   3.00299991E-02   6.93664606E-06
   3.02399993E-02   7.21129391E-06
   3.04499995E-02   7.44989347E-06
   3.06599997E-02   7.64733704E-06
   3.08699999E-02   7.79849506E-06
   3.10800001E-02   7.89826754E-06
   3.12899984E-02   7.94163589E-06
   3.15000005E-02   7.92371338E-06
   3.17099988E-02   7.83980340E-06
   3.19200009E-02   7.68545851E-06
   3.21299993E-02   7.45653824E-06
   3.23400013E-02   7.14926728E-06
   3.25499997E-02   6.76030004E-06
   3.27600017E-02   6.28677708E-06
   3.29700001E-02   5.72638646E-06
   3.31799984E-02   5.07741788E-06
   3.33900005E-02   4.33882133E-06
   3.35999988E-02   3.51025551E-06
   3.38100009E-02   2.59213607E-06
   3.40199992E-02   1.58567934E-06
   3.42300013E-02   4.92941581E-07
   3.44399996E-02  -6.83151768E-07
   3.46500017E-02  -1.93877827E-06
   3.48600000E-02  -3.26920076E-06
   3.50699984E-02  -4.66875781E-06
   3.52800004E-02  -6.13086104E-06
   3.54899988E-02  -7.64800097E-06
   3.57000008E-02  -9.21176525E-06
   3.59099992E-02  -1.08128597E-05
   3.61200012E-02  -1.24411463E-05
   3.63299996E-02  -1.40856882E-05
   3.65400016E-02  -1.57348022E-05
   3.67500000E-02  -1.73761218E-05
   3.69599983E-02  -1.89966777E-05
   3.71700004E-02  -2.05829729E-05
   3.73799987E-02  -2.21210812E-05
   3.75900008E-02  -2.35967418E-05
   3.77999991E-02  -2.49954719E-05
   3.80100012E-02  -2.63026814E-05
   3.82199995E-02  -2.75037946E-05
   3.84300016E-02  -2.85843707E-05
   3.86399999E-02  -2.95302452E-05
   3.88499983E-02  -3.03276574E-05
   3.90600003E-02  -3.09633833E-05
   3.92699987E-02  -3.14248791E-05
   3.94800007E-02  -3.17004087E-05
   3.96899991E-02  -3.17791892E-05
   3.99000011E-02  -3.16514961E-05
   4.01099995E-02  -3.13088203E-05
   4.03200015E-02  -3.07439586E-05
   4.05299999E-02  -2.99511285E-05
   4.07399982E-02  -2.89260861E-05
   4.09500003E-02  -2.76661940E-05
   4.11599986E-02  -2.61705100E-05
   4.13700007E-02  -2.44398470E-05
   4.15799990E-02  -2.24768210E-05
   4.17900011E-02  -2.02858919E-05
   4.19999994E-02  -1.78733681E-05
   4.22100015E-02  -1.52474258E-05
   4.24199998E-02  -1.24180769E-05
   4.26299982E-02  -9.39713573E-06
   4.28400002E-02  -6.19817365E-06
   4.30499986E-02  -2.83643840E-06
   4.32600006E-02   6.71232840E-07
   4.34699990E-02   4.30651880E-06
   4.36800011E-02   8.04973843E-06
   4.38899994E-02   1.18799953E-05
   4.41000015E-02   1.57753275E-05
   4.43099998E-02   1.97128920E-05
   4.45200019E-02   2.36691267E-05
   4.47300002E-02   2.76199553E-05
   4.49399985E-02   3.15409925E-05
   4.51500006E-02   3.54077565E-05
   4.53599989E-02   3.91958674E-05
   4.55700010E-02   4.28812818E-05
   4.57799993E-02   4.64405020E-05
   4.59900014E-02   4.98507907E-05
   4.61999997E-02   5.30903926E-05
   4.64100018E-02   5.61387351E-05
   4.66200002E-02   5.89766059E-05
   4.68299985E-02   6.15863755E-05
   4.70400006E-02   6.39521095E-05
   4.72499989E-02   6.60597725E-05
   4.74600010E-02   6.78973229E-05
   4.76699993E-02   6.94548435E-05
   4.78800014E-02   7.07246145E-05
   4.80899997E-02   7.17012008E-05
   4.83000018E-02   7.23814446E-05
   4.85100001E-02   7.27645165E-05
   4.87199984E-02   7.28518717E-05
   4.89300005E-02   7.26471917E-05
   4.91399989E-02   7.21563338E-05
   4.93500009E-02   7.13871996E-05
   4.95599993E-02   7.03495898E-05
   4.97700013E-02   6.90550660E-05
   4.99799997E-02   6.75167394E-05
   5.01900017E-02   6.57490455E-05
   5.04000001E-02   6.37675330E-05
   5.06099984E-02   6.15885656E-05
   5.08200005E-02   5.92290635E-05
   5.10299988E-02   5.67061870E-05
   5.12400009E-02   5.40370529E-05
   5.14499992E-02   5.12384067E-05
   5.16600013E-02   4.83263066E-05
   5.18699996E-02   4.53158063E-05
   5.20800017E-02   4.22206140E-05
   5.22900000E-02   3.90528148E-05
   5.24999984E-02   3.58225589E-05
   5.27100004E-02   3.25377878E-05
   5.29199988E-02   2.92040004E-05
   5.31300008E-02   2.58239961E-05
   5.33399992E-02   2.23976913E-05
   5.35500012E-02   1.89219754E-05
   5.37599996E-02   1.53905621E-05
   5.39700016E-02   1.17939235E-05
   5.41800000E-02   8.11927293E-06
   5.43899983E-02   4.35058746E-06
   5.46000004E-02   4.68661398E-07
   5.48099987E-02  -3.54876738E-06
   5.50200008E-02  -7.72680778E-06
   5.52299991E-02  -1.20931845E-05
   5.54400012E-02  -1.66779519E-05
   5.56499995E-02  -2.15131240E-05
   5.58600016E-02  -2.66322750E-05
   5.60699999E-02  -3.20700674E-05
   5.62799983E-02  -3.78617369E-05
   5.64900003E-02  -4.40425247E-05
   5.66999987E-02  -5.06470678E-05
   5.69100007E-02  -5.77087485E-05
   5.71199991E-02  -6.52590097E-05
   5.73300011E-02  -7.33266570E-05
   5.75399995E-02  -8.19370835E-05
   5.77500015E-02  -9.11115931E-05
   5.79599999E-02  -1.00866571E-04
   5.81699982E-02  -1.11212757E-04
   5.83800003E-02  -1.22154510E-04
   5.85899986E-02  -1.33689085E-04
   5.88000007E-02  -1.45805898E-04
   5.90099990E-02  -1.58485942E-04
   5.92200011E-02  -1.71701118E-04
   5.94299994E-02  -1.85413679E-04
   5.96400015E-02  -1.99575763E-04
   5.98499998E-02  -2.14129002E-04
   6.00599982E-02  -2.29004130E-04
   6.02700002E-02  -2.44120820E-04
   6.04799986E-02  -2.59387481E-04
   6.06900007E-02  -2.74701335E-04
   6.08999990E-02  -2.89948395E-04
   6.11100011E-02  -3.05003778E-04
   6.13199994E-02  -3.19731887E-04
   6.15300015E-02  -3.33987118E-04
   6.17399998E-02  -3.47614172E-04
   6.19499981E-02  -3.60449048E-04
   6.21600002E-02  -3.72319802E-04
   6.23699985E-02  -3.83047387E-04
   6.25799969E-02  -3.92447051E-04
   6.27899989E-02  -4.00329445E-04
   6.30000010E-02  -4.06502018E-04
   6.32100031E-02  -4.10770474E-04
   6.34199977E-02  -4.12940455E-04
   6.36299998E-02  -4.12819179E-04
   6.38400018E-02  -4.10217326E-04
   6.40499964E-02  -4.04950668E-04
   6.42599985E-02  -3.96842224E-04
   6.44700006E-02  -3.85724154E-04
   6.46800026E-02  -3.71439761E-04
   6.48899972E-02  -3.53845506E-04
   6.50999993E-02  -3.32813070E-04
   6.53100014E-02  -3.08231334E-04
   6.55200034E-02  -2.80008360E-04
   6.57299981E-02  -2.48073251E-04
   6.59400001E-02  -2.12378087E-04
   6.61500022E-02  -1.72899687E-04
   6.63599968E-02  -1.29641150E-04
   6.65699989E-02  -8.26334071E-05
   6.67800009E-02  -3.19365972E-05
   6.69900030E-02   2.23587576E-05
   6.71999976E-02   8.01307251E-05
   6.74099997E-02   1.41225202E-04
   6.76200017E-02   2.05455319E-04
   6.78299963E-02   2.72601028E-04
   6.80399984E-02   3.42409039E-04
   6.82500005E-02   4.14593000E-04
   6.84600025E-02   4.88833815E-04
   6.86699972E-02   5.64780319E-04
   6.88799992E-02   6.42050407E-04
   6.90900013E-02   7.20232027E-04
   6.93000033E-02   7.98884896E-04
   6.95099980E-02   8.77542072E-04
   6.97200000E-02   9.55712283E-04
   6.99300021E-02   1.03288214E-03
   7.01399967E-02   1.10851869E-03
   7.03499988E-02   1.18207245E-03
   7.05600008E-02   1.25298044E-03
   7.07700029E-02   1.32066908E-03
   7.09799975E-02   1.38455839E-03
   7.11899996E-02   1.44406571E-03
   7.14000016E-02   1.49860897E-03
   7.16100037E-02   1.54761085E-03
   7.18199983E-02   1.59050350E-03
   7.20300004E-02   1.62673218E-03
   7.22400025E-02   1.65575999E-03
   7.24499971E-02   1.67707179E-03
   7.26599991E-02   1.69017864E-03
   7.28700012E-02   1.69462245E-03
   7.30800033E-02   1.68997957E-03
   7.32899979E-02   1.67586561E-03
   7.34999999E-02   1.65193900E-03
   7.37100020E-02   1.61790464E-03
   7.39199966E-02   1.57351815E-03
   7.41299987E-02   1.51858921E-03
   7.43400007E-02   1.45298382E-03
   7.45500028E-02   1.37662829E-03
   7.47599974E-02   1.28951133E-03
   7.49699995E-02   1.19168614E-03
   7.51800016E-02   1.08327216E-03
   7.53900036E-02   9.64457169E-04
   7.55999982E-02   8.35497514E-04
   7.58100003E-02   6.96719275E-04
   7.60200024E-02   5.48518088E-04
   7.62299970E-02   3.91359121E-04
   7.64399990E-02   2.25776006E-04
   7.66500011E-02   5.23698036E-05
   7.68600032E-02  -1.28192696E-04
   7.70699978E-02  -3.15181183E-04
   7.72799999E-02  -5.07804623E-04
   7.74900019E-02  -7.05214043E-04
   7.76999965E-02  -9.06506611E-04
   7.79099986E-02  -1.11072906E-03
   7.81200007E-02  -1.31688244E-03
   7.83300027E-02  -1.52392720E-03
   7.85399973E-02  -1.73078792E-03
   7.87499994E-02  -1.93635863E-03
   7.89600015E-02  -2.13950942E-03
   7.91700035E-02  -2.33909255E-03
   7.93799981E-02  -2.53394782E-03
   7.95900002E-02  -2.72291037E-03
   7.98000023E-02  -2.90481700E-03
   8.00099969E-02  -3.07851238E-03
   8.02199990E-02  -3.24285752E-03
   8.04300010E-02  -3.39673506E-03
   8.06400031E-02  -3.53905768E-03
   8.08499977E-02  -3.66877485E-03
   8.10599998E-02  -3.78487841E-03
   8.12700018E-02  -3.88641073E-03
   8.14799964E-02  -3.97247169E-03
   8.16899985E-02  -4.04222263E-03
   8.19000006E-02  -4.09489404E-03
   8.21100026E-02  -4.12979256E-03
   8.23199973E-02  -4.14630305E-03
   8.25299993E-02  -4.14389512E-03
   8.27400014E-02  -4.12212824E-03
   8.29500034E-02  -4.08065552E-03
   8.31599981E-02  -4.01922595E-03
   8.33700001E-02  -3.93768912E-03
   8.35800022E-02  -3.83599615E-03
   8.37899968E-02  -3.71420127E-03
   8.39999989E-02  -3.57246515E-03
   8.42100009E-02  -3.41105321E-03
   8.44200030E-02  -3.23033705E-03
   8.46299976E-02  -3.03079211E-03
   8.48399997E-02  -2.81299790E-03
   8.50500017E-02  -2.57763546E-03
   8.52599964E-02  -2.32548406E-03
   8.54699984E-02  -2.05741986E-03
   8.56800005E-02  -1.77441002E-03
   8.58900025E-02  -1.47750915E-03
   8.60999972E-02  -1.16785429E-03
   8.63099992E-02  -8.46659648E-04
   8.65200013E-02  -5.15210093E-04
   8.67300034E-02  -1.74854911E-04
   8.69399980E-02   1.72998974E-04
   8.71500000E-02   5.26894466E-04
   8.73600021E-02   8.85332120E-04
   8.75699967E-02   1.24677771E-03
   8.77799988E-02   1.60967093E-03
   8.79900008E-02   1.97243295E-03
   8.82000029E-02   2.33347621E-03
   8.84099975E-02   2.69121164E-03
   8.86199996E-02   3.04405810E-03
   8.88300017E-02   3.39045143E-03
   8.90400037E-02   3.72885191E-03
   8.92499983E-02   4.05775337E-03
   8.94600004E-02   4.37569153E-03
   8.96700025E-02   4.68125194E-03
   8.98799971E-02   4.97307675E-03
   9.00899991E-02   5.24987374E-03
   9.03000012E-02   5.51042054E-03
   9.05100033E-02   5.75357536E-03
   9.07199979E-02   5.97827882E-03
   9.09299999E-02   6.18356047E-03
   9.11400020E-02   6.36854721E-03
   9.13499966E-02   6.53246138E-03
   9.15599987E-02   6.67462917E-03
   9.17700008E-02   6.79448200E-03
   9.19800028E-02   6.89155888E-03
   9.21899974E-02   6.96550775E-03
   9.23999995E-02   7.01608649E-03
   9.26100016E-02   7.04316469E-03
   9.28200036E-02   7.04672001E-03
   9.30299982E-02   7.02683907E-03
   9.32400003E-02   6.98371511E-03
   9.34500024E-02   6.91764522E-03
   9.36599970E-02   6.82902709E-03
   9.38699991E-02   6.71835383E-03
   9.40800011E-02   6.58621173E-03
   9.42900032E-02   6.43327367E-03
   9.44999978E-02   6.26029307E-03
   9.47099999E-02   6.06809836E-03
   9.49200019E-02   5.85758453E-03
   9.51299965E-02   5.62970946E-03
   9.53399986E-02   5.38548268E-03
   9.55500007E-02   5.12595940E-03
   9.57600027E-02   4.85223392E-03
   9.59699973E-02   4.56542755E-03
   9.61799994E-02   4.26668394E-03
   9.63900015E-02   3.95715935E-03
   9.66000035E-02   3.63801373E-03
   9.68099982E-02   3.31040309E-03
   9.70200002E-02   2.97547178E-03
   9.72300023E-02   2.63434346E-03
   9.74399969E-02   2.28811451E-03
   9.76499990E-02   1.93784595E-03
   9.78600010E-02   1.58455747E-03
   9.80700031E-02   1.22921984E-03
   9.82799977E-02   8.72750243E-04
   9.84899998E-02   5.16006025E-04
   9.87000018E-02   1.59780582E-04
   9.89099964E-02  -1.95201137E-04
   9.91199985E-02  -5.48285723E-04
   9.93300006E-02  -8.98893864E-04
   9.95400026E-02  -1.24652241E-03
   9.97499973E-02  -1.59074529E-03
   9.99599993E-02  -1.93121342E-03
  0.100170001      -2.26765522E-03
  0.100380003      -2.59987428E-03
  0.100589998      -2.92774732E-03
  0.100800000      -3.25122173E-03
  0.101010002      -3.57031147E-03
  0.101219997      -3.88509198E-03
  0.101429999      -4.19569621E-03
  0.101640001      -4.50230809E-03
  0.101850003      -4.80515510E-03
  0.102059998      -5.10450359E-03
  0.102270000      -5.40064787E-03
  0.102480002      -5.69390506E-03
  0.102689996      -5.98460436E-03
  0.102899998      -6.27307873E-03
  0.103110000      -6.55965693E-03
  0.103320003      -6.84465142E-03
  0.103529997      -7.12835230E-03
  0.103739999      -7.41101522E-03
  0.103950001      -7.69285345E-03
  0.104160003      -7.97402766E-03
  0.104369998      -8.25463701E-03
  0.104580000      -8.53471179E-03
  0.104790002      -8.81420448E-03
  0.104999997      -9.09297913E-03
  0.105209999      -9.37080942E-03
  0.105420001      -9.64736845E-03
  0.105630003      -9.92222503E-03
  0.105839998      -1.01948380E-02
  0.106050000      -1.04645491E-02
  0.106260002      -1.07305869E-02
  0.106470004      -1.09920576E-02
  0.106679998      -1.12479469E-02
  0.106890000      -1.14971222E-02
  0.107100002      -1.17383311E-02
  0.107309997      -1.19702015E-02
  0.107519999      -1.21912519E-02
  0.107730001      -1.23998886E-02
  0.107940003      -1.25944186E-02
  0.108149998      -1.27730481E-02
  0.108360000      -1.29338978E-02
  0.108570002      -1.30750109E-02
  0.108779997      -1.31943589E-02
  0.108989999      -1.32898586E-02
  0.109200001      -1.33593800E-02
  0.109410003      -1.34007605E-02
  0.109619997      -1.34118199E-02
  0.109830000      -1.33903744E-02
  0.110040002      -1.33342529E-02
  0.110250004      -1.32413097E-02
  0.110459998      -1.31094428E-02
  0.110670000      -1.29366135E-02
  0.110880002      -1.27208550E-02
  0.111089997      -1.24602988E-02
  0.111299999      -1.21531850E-02
  0.111510001      -1.17978808E-02
  0.111720003      -1.13929007E-02
  0.111929998      -1.09369131E-02
  0.112140000      -1.04287686E-02
  0.112350002      -9.86750517E-03
  0.112559997      -9.25236475E-03
  0.112769999      -8.58281273E-03
  0.112980001      -7.85853993E-03
  0.113190003      -7.07948254E-03
  0.113399997      -6.24582963E-03
  0.113609999      -5.35802962E-03
  0.113820001      -4.41680290E-03
  0.114030004      -3.42314411E-03
  0.114239998      -2.37833150E-03
  0.114450000      -1.28392596E-03
  0.114660002      -1.41773911E-04
  0.114869997       1.04599015E-03
  0.115079999       2.27694702E-03
  0.115290001       3.54839512E-03
  0.115500003       4.85735340E-03
  0.115709998       6.20056968E-03
  0.115920000       7.57452380E-03
  0.116130002       8.97544529E-03
  0.116339996       1.03993155E-02
  0.116549999       1.18418783E-02
  0.116760001       1.32986605E-02
  0.116970003       1.47649851E-02
  0.117179997       1.62359774E-02
  0.117389999       1.77065935E-02
  0.117600001       1.91716235E-02
  0.117810003       2.06257328E-02
  0.118019998       2.20634565E-02
  0.118230000       2.34792288E-02
  0.118440002       2.48674061E-02
  0.118649997       2.62222793E-02
  0.118859999       2.75381040E-02
  0.119070001       2.88091134E-02
  0.119280003       3.00295390E-02
  0.119489998       3.11936252E-02
  0.119700000       3.22956666E-02
  0.119910002       3.33300009E-02
  0.120119996       3.42910551E-02
  0.120329998       3.51733416E-02
  0.120540000       3.59714814E-02
  0.120750003       3.66802141E-02
  0.120959997       3.72944213E-02
  0.121169999       3.78091447E-02
  0.121380001       3.82195786E-02
  0.121590003       3.85210887E-02
  0.121799998       3.87092233E-02
  0.122010000       3.87797244E-02
  0.122220002       3.87285240E-02
  0.122429997       3.85517552E-02
  0.122639999       3.82457525E-02
  0.122850001       3.78070511E-02
  0.123060003       3.72323878E-02
  0.123269998       3.65186930E-02
  0.123480000       3.56631093E-02
  0.123690002       3.46629582E-02
  0.123899996       3.35157514E-02
  0.124109998       3.22191678E-02
  0.124320000       3.07710674E-02
  0.124530002       2.91694608E-02
  0.124739997       2.74125095E-02
  0.124949999       2.54985038E-02
  0.125159994       2.34258659E-02
  0.125369996       2.11931169E-02
  0.125579998       1.87988803E-02
  0.125790000       1.62418541E-02
  0.126000002       1.35207986E-02
  0.126210004       1.06345313E-02
  0.126420006       7.58190500E-03
  0.126629993       4.36178967E-03
  0.126839995       9.73063405E-04
  0.127049997      -2.58540548E-03
  0.127260000      -6.31476985E-03
  0.127470002      -1.02162091E-02
  0.127680004      -1.42909605E-02
  0.127890006      -1.85403209E-02
  0.128099993      -2.29656473E-02
  0.128309995      -2.75683850E-02
  0.128519997      -3.23500521E-02
  0.128729999      -3.73122729E-02
  0.128940001      -4.24567536E-02
  0.129150003      -4.77853231E-02
  0.129360005      -5.32999076E-02
  0.129570007      -5.90025298E-02
  0.129779994      -6.48953244E-02
  0.129989997      -7.09805340E-02
  0.130199999      -7.72605017E-02
  0.130410001      -8.37376565E-02
  0.130620003      -9.04145241E-02
  0.130830005      -9.72937047E-02
  0.131040007     -0.104377888    
  0.131249994     -0.111669794    
  0.131459996     -0.119172238    
  0.131669998     -0.126888022    
  0.131880000     -0.134820014    
  0.132090002     -0.142971054    
  0.132300004     -0.151343986    
  0.132510006     -0.159941629    
  0.132719994     -0.168766752    
  0.132929996     -0.177822068    
  0.133139998     -0.187110201    
  0.133350000     -0.196633682    
  0.133560002     -0.206394896    
  0.133770004     -0.216396138    
  0.133980006     -0.226639479    
  0.134189993     -0.237126857    
  0.134399995     -0.247859955    
  0.134609997     -0.258840322    
  0.134819999     -0.270069182    
  0.135030001     -0.281547576    
  0.135240003     -0.293276191    
  0.135450006     -0.305255473    
  0.135659993     -0.317485571    
  0.135869995     -0.329966277    
  0.136079997     -0.342697084    
  0.136289999     -0.355677128    
  0.136500001     -0.368905127    
  0.136710003     -0.382379502    
  0.136920005     -0.396098346    
  0.137130007     -0.410059243    
  0.137339994     -0.424259454    
  0.137549996     -0.438695818    
  0.137759998     -0.453364819    
  0.137970001     -0.468262523    
  0.138180003     -0.483384579    
  0.138390005     -0.498726279    
  0.138600007     -0.514282525    
  0.138809994     -0.530047715    
  0.139019996     -0.546016097    
  0.139229998     -0.562181413    
  0.139440000     -0.578536928    
  0.139650002     -0.595075786    
  0.139860004     -0.611790597    
  0.140070006     -0.628673792    
  0.140279993     -0.645717442    
  0.140489995     -0.662913203    
  0.140699998     -0.680252612    
  0.140910000     -0.697726965    
  0.141120002     -0.715327263    
  0.141330004     -0.733044147    
  0.141540006     -0.750868201    
  0.141749993     -0.768789828    
  0.141959995     -0.786799312    
  0.142169997     -0.804886699    
  0.142379999     -0.823041975    
  0.142590001     -0.841255069    
  0.142800003     -0.859515846    
  0.143010005     -0.877813995    
  0.143220007     -0.896139383    
  0.143429995     -0.914481759    
  0.143639997     -0.932830989    
  0.143849999     -0.951176822    
  0.144060001     -0.969509304    
  0.144270003     -0.987818599    
  0.144480005      -1.00609469    
  0.144690007      -1.02432799    
  0.144899994      -1.04250896    
  0.145109996      -1.06062829    
  0.145319998      -1.07867706    
  0.145530000      -1.09664607    
  0.145740002      -1.11452699    
  0.145950004      -1.13231122    
  0.146160007      -1.14999092    
  0.146369994      -1.16755831    
  0.146579996      -1.18500590    
  0.146789998      -1.20232654    
  0.147000000      -1.21951354    
  0.147210002      -1.23656058    
  0.147420004      -1.25346148    
  0.147630006      -1.27021074    
  0.147839993      -1.28680289    
  0.148049995      -1.30323315    
  0.148259997      -1.31949711    
  0.148469999      -1.33559084    
  0.148680001      -1.35151052    
  0.148890004      -1.36725307    
  0.149100006      -1.38281548    
  0.149309993      -1.39819551    
  0.149519995      -1.41339099    
  0.149729997      -1.42840052    
  0.149939999      -1.44322300    
  0.150150001      -1.45785737    
  0.150360003      -1.47230351    
  0.150570005      -1.48656142    
  0.150780007      -1.50063121    
  0.150989994      -1.51451397    
  0.151199996      -1.52821064    
  0.151409999      -1.54172289    
  0.151620001      -1.55505240    
  0.151830003      -1.56820130    
  0.152040005      -1.58117187    
  0.152250007      -1.59396696    
  0.152459994      -1.60658967    
  0.152669996      -1.61904323    
  0.152879998      -1.63133121    
  0.153090000      -1.64345717    
  0.153300002      -1.65542519    
  0.153510004      -1.66723931    
  0.153720006      -1.67890406    
  0.153929994      -1.69042385    
  0.154139996      -1.70180345    
  0.154349998      -1.71304739    
  0.154560000      -1.72416079    
  0.154770002      -1.73514831    
  0.154980004      -1.74601531    
  0.155190006      -1.75676680    
  0.155399993      -1.76740789    
  0.155609995      -1.77794385    
  0.155819997      -1.78837967    
  0.156029999      -1.79872072    
  0.156240001      -1.80897224    
  0.156450003      -1.81913924    
  0.156660005      -1.82922685    
  0.156869993      -1.83924007    
  0.157079995      -1.84918416    
  0.157289997      -1.85906374    
  0.157499999      -1.86888397    
  0.157710001      -1.87864947    
  0.157920003      -1.88836503    
  0.158130005      -1.89803505    
  0.158340007      -1.90766406    
  0.158549994      -1.91725647    
  0.158759996      -1.92681658    
  0.158969998      -1.93634844    
  0.159180000      -1.94585609    
  0.159390002      -1.95534348    
  0.159600005      -1.96481431    
  0.159810007      -1.97427249    
  0.160019994      -1.98372126    
  0.160229996      -1.99316430    
  0.160439998      -2.00260496    
  0.160650000      -2.01204658    
  0.160860002      -2.02149177    
  0.161070004      -2.03094435    
  0.161280006      -2.04040647    
  0.161489993      -2.04988146    
  0.161699995      -2.05937195    
  0.161909997      -2.06888056    
  0.162120000      -2.07840991    
  0.162330002      -2.08796239    
  0.162540004      -2.09754038    
  0.162750006      -2.10714650    
  0.162959993      -2.11678314    
  0.163169995      -2.12645245    
  0.163379997      -2.13615680    
  0.163589999      -2.14589810    
  0.163800001      -2.15567875    
  0.164010003      -2.16550064    
  0.164220005      -2.17536616    
  0.164430007      -2.18527722    
  0.164639995      -2.19523549    
  0.164849997      -2.20524335    
  0.165059999      -2.21530247    
  0.165270001      -2.22541475    
  0.165480003      -2.23558187    
  0.165690005      -2.24580622    
  0.165900007      -2.25608921    
  0.166109994      -2.26643300    
  0.166319996      -2.27683878    
  0.166529998      -2.28730869    
  0.166740000      -2.29784417    
  0.166950002      -2.30844665    
  0.167160004      -2.31911778    
  0.167370006      -2.32985878    
  0.167579994      -2.34067154    
  0.167789996      -2.35155725    
  0.167999998      -2.36251688    
  0.168210000      -2.37355137    
  0.168420002      -2.38466215    
  0.168630004      -2.39584994    
  0.168840006      -2.40711594    
  0.169049993      -2.41846037    
  0.169259995      -2.42988443    
  0.169469997      -2.44138789    
  0.169679999      -2.45297170    
  0.169890001      -2.46463585    
  0.170100003      -2.47638035    
  0.170310006      -2.48820543    
  0.170519993      -2.50011039    
  0.170729995      -2.51209474    
  0.170939997      -2.52415824    
  0.171149999      -2.53629994    
  0.171360001      -2.54851866    
  0.171570003      -2.56081343    
  0.171780005      -2.57318282    
  0.171990007      -2.58562541    
  0.172199994      -2.59813952    
  0.172409996      -2.61072302    
  0.172619998      -2.62337327    
  0.172830001      -2.63608813    
  0.173040003      -2.64886546    
  0.173250005      -2.66170239    
  0.173460007      -2.67459583    
  0.173669994      -2.68754292    
  0.173879996      -2.70053983    
  0.174089998      -2.71358323    
  0.174300000      -2.72666955    
  0.174510002      -2.73979425    
  0.174720004      -2.75295377    
  0.174930006      -2.76614356    
  0.175139993      -2.77935934    
  0.175349995      -2.79259682    
  0.175559998      -2.80585074    
  0.175770000      -2.81911683    
  0.175980002      -2.83238983    
  0.176190004      -2.84566498    
  0.176400006      -2.85893679    
  0.176609993      -2.87220025    
  0.176819995      -2.88545036    
  0.177029997      -2.89868140    
  0.177239999      -2.91188836    
  0.177450001      -2.92506576    
  0.177660003      -2.93820810    
  0.177870005      -2.95130992    
  0.178080007      -2.96436572    
  0.178289995      -2.97737050    
  0.178499997      -2.99031878    
  0.178709999      -3.00320554    
  0.178920001      -3.01602578    
  0.179130003      -3.02877378    
  0.179340005      -3.04144502    
  0.179550007      -3.05403471    
  0.179759994      -3.06653810    