   0.00000000       0.00000000    
   2.09999998E-04   0.00000000    
   4.19999997E-04   0.00000000    
   6.30000024E-04   0.00000000    
   8.39999993E-04  -3.95240297E-18
   1.04999996E-03  -2.82854212E-17
   1.26000005E-03  -9.00169905E-17
   1.47000002E-03  -1.02631905E-16
   1.67999999E-03   4.58026237E-16
   1.88999996E-03   3.33733141E-15
   2.09999993E-03   1.30476574E-14
   2.30999989E-03   3.95889376E-14
   2.52000010E-03   1.02856627E-13
   2.73000007E-03   2.39344053E-13
   2.94000003E-03   5.11828047E-13
   3.15000000E-03   1.02278873E-12
   3.35999997E-03   1.93234946E-12
   3.56999994E-03   3.48152822E-12
   3.77999991E-03   6.02155001E-12
   3.99000011E-03   1.00499036E-11
   4.19999985E-03   1.62536633E-11
   4.41000005E-03   2.55604860E-11
   4.61999979E-03   3.91973537E-11
   4.82999999E-03   5.87569646E-11
   5.04000019E-03   8.62713026E-11
   5.24999993E-03   1.24291383E-10
   5.46000013E-03   1.75972001E-10
   5.66999987E-03   2.45159809E-10
   5.88000007E-03   3.36482037E-10
   6.08999981E-03   4.55433746E-10
   6.30000001E-03   6.08459838E-10
   6.51000021E-03   8.03028144E-10
   6.71999995E-03   1.04768927E-09
   6.93000015E-03   1.35211875E-09
   7.13999989E-03   1.72713688E-09
   7.35000009E-03   2.18469864E-09
   7.55999982E-03   2.73785195E-09
   7.77000003E-03   3.40065465E-09
   7.98000023E-03   4.18804547E-09
   8.19000043E-03   5.11566656E-09
   8.39999970E-03   6.19962748E-09
   8.60999990E-03   7.45620987E-09
   8.82000010E-03   8.90150798E-09
   9.03000031E-03   1.05509903E-08
   9.23999958E-03   1.24190089E-08
   9.44999978E-03   1.45182213E-08
   9.65999998E-03   1.68589480E-08
   9.87000018E-03   1.94484535E-08
   1.00800004E-02   2.22901662E-08
   1.02899997E-02   2.53828301E-08
   1.04999999E-02   2.87196169E-08
   1.07100001E-02   3.22871649E-08
   1.09200003E-02   3.60646162E-08
   1.11300005E-02   4.00226199E-08
   1.13399997E-02   4.41223094E-08
   1.15499999E-02   4.83143339E-08
   1.17600001E-02   5.25378958E-08
   1.19700003E-02   5.67198448E-08
   1.21799996E-02   6.07738784E-08
   1.23899998E-02   6.45997957E-08
   1.26000000E-02   6.80829260E-08
   1.28100002E-02   7.10937087E-08
   1.30200004E-02   7.34874632E-08
   1.32299997E-02   7.51043530E-08
   1.34399999E-02   7.57696341E-08
   1.36500001E-02   7.52941389E-08
   1.38600003E-02   7.34750785E-08
   1.40699996E-02   7.00971938E-08
   1.42799998E-02   6.49342127E-08
   1.44900000E-02   5.77507109E-08
   1.47000002E-02   4.83043543E-08
   1.49100004E-02   3.63485420E-08
   1.51199996E-02   2.16354241E-08
   1.53299998E-02   3.91938659E-09
   1.55400001E-02  -1.70390901E-08
   1.57500003E-02  -4.14691819E-08
   1.59600005E-02  -6.95850204E-08
   1.61700007E-02  -1.01580717E-07
   1.63800009E-02  -1.37625037E-07
   1.65899992E-02  -1.77855668E-07
   1.67999994E-02  -2.22373444E-07
   1.70099996E-02  -2.71236217E-07
   1.72199998E-02  -3.24452600E-07
   1.74300000E-02  -3.81975781E-07
   1.76400002E-02  -4.43697132E-07
   1.78500004E-02  -5.09440213E-07
   1.80600006E-02  -5.78954655E-07
   1.82700008E-02  -6.51910341E-07
   1.84799992E-02  -7.27892541E-07
   1.86899994E-02  -8.06396770E-07
   1.88999996E-02  -8.86824580E-07
   1.91099998E-02  -9.68480208E-07
   1.93200000E-02  -1.05056779E-06
   1.95300002E-02  -1.13218994E-06
   1.97400004E-02  -1.21234655E-06
   1.99500006E-02  -1.28993599E-06
   2.01600008E-02  -1.36375650E-06
   2.03699991E-02  -1.43250929E-06
   2.05799993E-02  -1.49480320E-06
   2.07899995E-02  -1.54916120E-06
   2.09999997E-02  -1.59402759E-06
   2.12099999E-02  -1.62777746E-06
   2.14200001E-02  -1.64872802E-06
   2.16300003E-02  -1.65515087E-06
   2.18400005E-02  -1.64528728E-06
   2.20500007E-02  -1.61736330E-06
   2.22600009E-02  -1.56960857E-06
   2.24699993E-02  -1.50027518E-06
   2.26799995E-02  -1.40765860E-06
   2.28899997E-02  -1.29011983E-06
   2.30999999E-02  -1.14610930E-06
   2.33100001E-02  -9.74191039E-07
   2.35200003E-02  -7.73069303E-07
   2.37300005E-02  -5.41613531E-07
   2.39400007E-02  -2.78886148E-07
   2.41500009E-02   1.58307802E-08
   2.43599992E-02   3.43008139E-07
   2.45699994E-02   7.02843295E-07
   2.47799996E-02   1.09523410E-06
   2.49899998E-02   1.51975337E-06
   2.52000000E-02   1.97562485E-06
   2.54100002E-02   2.46170111E-06
   2.56200004E-02   2.97644328E-06
   2.58300006E-02   3.51790254E-06
   2.60400008E-02   4.08370488E-06
   2.62499992E-02   4.67103882E-06
   2.64599994E-02   5.27664724E-06
   2.66699996E-02   5.89681940E-06
   2.68799998E-02   6.52739254E-06
   2.70900000E-02   7.16375280E-06
   2.73000002E-02   7.80084338E-06
   2.75100004E-02   8.43317684E-06
   2.77200006E-02   9.05484922E-06
   2.79300008E-02   9.65956951E-06
   2.81399991E-02   1.02406793E-05
   2.83499993E-02   1.07911901E-05
   2.85599995E-02   1.13038195E-05
   2.87699997E-02   1.17710370E-05
   2.89799999E-02   1.21851099E-05
   2.91900001E-02   1.25381566E-05
   2.94000003E-02   1.28222127E-05
   2.96100006E-02   1.30292856E-05
   2.98200008E-02   1.31514253E-05
   3.00299991E-02   1.31807965E-05
   3.02399993E-02   1.31097568E-05
   3.04499995E-02   1.29309328E-05
   3.06599997E-02   1.26372970E-05
   3.08699999E-02   1.22222573E-05
   3.10800001E-02   1.16797401E-05
   3.12899984E-02   1.10042693E-05
   3.15000005E-02   1.01910618E-05
   3.17099988E-02   9.23610150E-06
   3.19200009E-02   8.13622501E-06
   3.21299993E-02   6.88920272E-06
   3.23400013E-02   5.49381457E-06
   3.25499997E-02   3.94992185E-06
   3.27600017E-02   2.25853364E-06
   3.29700001E-02   4.21870652E-07
   3.31799984E-02  -1.55658142E-06
   3.33900005E-02  -3.67202460E-06
   3.35999988E-02  -5.91831031E-06
   3.38100009E-02  -8.28790598E-06
   3.40199992E-02  -1.07718797E-05
   3.42300013E-02  -1.33598824E-05
   3.44399996E-02  -1.60401596E-05
   3.46500017E-02  -1.87995556E-05
   3.48600000E-02  -2.16235330E-05
   3.50699984E-02  -2.44962230E-05
   3.52800004E-02  -2.74004597E-05
   3.54899988E-02  -3.03178422E-05
   3.57000008E-02  -3.32288182E-05
   3.59099992E-02  -3.61127641E-05
   3.61200012E-02  -3.89480701E-05
   3.63299996E-02  -4.17122574E-05
   3.65400016E-02  -4.43821191E-05
   3.67500000E-02  -4.69338192E-05
   3.69599983E-02  -4.93430562E-05
   3.71700004E-02  -5.15852116E-05
   3.73799987E-02  -5.36354964E-05
   3.75900008E-02  -5.54691469E-05
   3.77999991E-02  -5.70615703E-05
   3.80100012E-02  -5.83885449E-05
   3.82199995E-02  -5.94263984E-05
   3.84300016E-02  -6.01521970E-05
   3.86399999E-02  -6.05439382E-05
   3.88499983E-02  -6.05807472E-05
   3.90600003E-02  -6.02430482E-05
   3.92699987E-02  -5.95127713E-05
   3.94800007E-02  -5.83735236E-05
   3.96899991E-02  -5.68107862E-05
   3.99000011E-02  -5.48120661E-05
   4.01099995E-02  -5.23670606E-05
   4.03200015E-02  -4.94678352E-05
   4.05299999E-02  -4.61089403E-05
   4.07399982E-02  -4.22875601E-05
   4.09500003E-02  -3.80036145E-05
   4.11599986E-02  -3.32598793E-05
   4.13700007E-02  -2.80620679E-05
   4.15799990E-02  -2.24188971E-05
   4.17900011E-02  -1.63421464E-05
   4.19999994E-02  -9.84669168E-06
   4.22100015E-02  -2.95052678E-06
   4.24199998E-02   4.32523984E-06
   4.26299982E-02   1.19564093E-05
   4.28400002E-02   1.99157294E-05
   4.30499986E-02   2.81729517E-05
   4.32600006E-02   3.66949134E-05
   4.34699990E-02   4.54456458E-05
   4.36800011E-02   5.43864662E-05
   4.38899994E-02   6.34761454E-05
   4.41000015E-02   7.26710277E-05
   4.43099998E-02   8.19252309E-05
   4.45200019E-02   9.11908064E-05
   4.47300002E-02   1.00417972E-04
   4.49399985E-02   1.09555287E-04
   4.51500006E-02   1.18549899E-04
   4.53599989E-02   1.27347797E-04
   4.55700010E-02   1.35894021E-04
   4.57799993E-02   1.44132995E-04
   4.59900014E-02   1.52008681E-04
   4.61999997E-02   1.59464922E-04
   4.64100018E-02   1.66445752E-04
   4.66200002E-02   1.72895598E-04
   4.68299985E-02   1.78759597E-04
   4.70400006E-02   1.83983910E-04
   4.72499989E-02   1.88515929E-04
   4.74600010E-02   1.92304622E-04
   4.76699993E-02   1.95300789E-04
   4.78800014E-02   1.97457353E-04
   4.80899997E-02   1.98729584E-04
   4.83000018E-02   1.99075424E-04
   4.85100001E-02   1.98455673E-04
   4.87199984E-02   1.96834299E-04
   4.89300005E-02   1.94178647E-04
   4.91399989E-02   1.90459687E-04
   4.93500009E-02   1.85652199E-04
   4.95599993E-02   1.79735027E-04
   4.97700013E-02   1.72691289E-04
   4.99799997E-02   1.64508514E-04
   5.01900017E-02   1.55178888E-04
   5.04000001E-02   1.44699370E-04
   5.06099984E-02   1.33071851E-04
   5.08200005E-02   1.20303339E-04
   5.10299988E-02   1.06406093E-04
   5.12400009E-02   9.13976910E-05
   5.14499992E-02   7.53011991E-05
   5.16600013E-02   5.81452368E-05
   5.18699996E-02   3.99640703E-05
   5.20800017E-02   2.07976864E-05
   5.22900000E-02   6.91843638E-07
   5.24999984E-02  -2.03018826E-05
   5.27100004E-02  -4.21260702E-05
   5.29199988E-02  -6.47174456E-05
   5.31300008E-02  -8.80068765E-05
   5.33399992E-02  -1.11919413E-04
   5.35500012E-02  -1.36374307E-04
   5.37599996E-02  -1.61285134E-04
   5.39700016E-02  -1.86559817E-04
   5.41800000E-02  -2.12100713E-04
   5.43899983E-02  -2.37804823E-04
   5.46000004E-02  -2.63563939E-04
   5.48099987E-02  -2.89264746E-04
   5.50200008E-02  -3.14789155E-04
   5.52299991E-02  -3.40014521E-04
   5.54400012E-02  -3.64813837E-04
   5.56499995E-02  -3.89056222E-04
   5.58600016E-02  -4.12607100E-04
   5.60699999E-02  -4.35328693E-04
   5.62799983E-02  -4.57080489E-04
   5.64900003E-02  -4.77719645E-04
   5.66999987E-02  -4.97101515E-04
   5.69100007E-02  -5.15080232E-04
   5.71199991E-02  -5.31509344E-04
   5.73300011E-02  -5.46242343E-04
   5.75399995E-02  -5.59133478E-04
   5.77500015E-02  -5.70038508E-04
   5.79599999E-02  -5.78815409E-04
   5.81699982E-02  -5.85325179E-04
   5.83800003E-02  -5.89432660E-04
   5.85899986E-02  -5.91007643E-04
   5.88000007E-02  -5.89925621E-04
   5.90099990E-02  -5.86068607E-04
   5.92200011E-02  -5.79326472E-04
   5.94299994E-02  -5.69597643E-04
   5.96400015E-02  -5.56790212E-04
   5.98499998E-02  -5.40823094E-04
   6.00599982E-02  -5.21626847E-04
   6.02700002E-02  -4.99144837E-04
   6.04799986E-02  -4.73334134E-04
   6.06900007E-02  -4.44166653E-04
   6.08999990E-02  -4.11630026E-04
   6.11100011E-02  -3.75728501E-04
   6.13199994E-02  -3.36483878E-04
   6.15300015E-02  -2.93936377E-04
   6.17399998E-02  -2.48145312E-04
   6.19499981E-02  -1.99189803E-04
   6.21600002E-02  -1.47169427E-04
   6.23699985E-02  -9.22046675E-05
   6.25799969E-02  -3.44373366E-05
   6.27899989E-02   2.59691169E-05
   6.30000010E-02   8.88294526E-05
   6.32100031E-02   1.53936606E-04
   6.34199977E-02   2.21061753E-04
   6.36299998E-02   2.89954623E-04
   6.38400018E-02   3.60343838E-04
   6.40499964E-02   4.31937486E-04
   6.42599985E-02   5.04423806E-04
   6.44700006E-02   5.77472150E-04
   6.46800026E-02   6.50734000E-04
   6.48899972E-02   7.23844219E-04
   6.50999993E-02   7.96422421E-04
   6.53100014E-02   8.68074421E-04
   6.55200034E-02   9.38394282E-04
   6.57299981E-02   1.00696587E-03
   6.59400001E-02   1.07336510E-03
   6.61500022E-02   1.13716221E-03
   6.63599968E-02   1.19792367E-03
   6.65699989E-02   1.25521526E-03
   6.67800009E-02   1.30860414E-03
   6.69900030E-02   1.35766203E-03
   6.71999976E-02   1.40196737E-03
   6.74099997E-02   1.44110888E-03
   6.76200017E-02   1.47468771E-03
   6.78299963E-02   1.50232122E-03
   6.80399984E-02   1.52364548E-03
   6.82500005E-02   1.53831800E-03
   6.84600025E-02   1.54602109E-03
   6.86699972E-02   1.54646463E-03
   6.88799992E-02   1.53938879E-03
   6.90900013E-02   1.52456691E-03
   6.93000033E-02   1.50180783E-03
   6.95099980E-02   1.47095835E-03
   6.97200000E-02   1.43190601E-03
   6.99300021E-02   1.38458097E-03
   7.01399967E-02   1.32895750E-03
   7.03499988E-02   1.26505608E-03
   7.05600008E-02   1.19294459E-03
   7.07700029E-02   1.11273967E-03
   7.09799975E-02   1.02460722E-03
   7.11899996E-02   9.28763475E-04
   7.14000016E-02   8.25474679E-04
   7.16100037E-02   7.15057133E-04
   7.18199983E-02   5.97877079E-04
   7.20300004E-02   4.74349567E-04
   7.22400025E-02   3.44937231E-04
   7.24499971E-02   2.10149126E-04
   7.26599991E-02   7.05386337E-05
   7.28700012E-02  -7.32987828E-05
   7.30800033E-02  -2.20727976E-04
   7.32899979E-02  -3.71077098E-04
   7.34999999E-02  -5.23640949E-04
   7.37100020E-02  -6.77684264E-04
   7.39199966E-02  -8.32445745E-04
   7.41299987E-02  -9.87142092E-04
   7.43400007E-02  -1.14097213E-03
   7.45500028E-02  -1.29312207E-03
   7.47599974E-02  -1.44276943E-03
   7.49699995E-02  -1.58908858E-03
   7.51800016E-02  -1.73125556E-03
   7.53900036E-02  -1.86845311E-03
   7.55999982E-02  -1.99987623E-03
   7.58100003E-02  -2.12473725E-03
   7.60200024E-02  -2.24227109E-03
   7.62299970E-02  -2.35174084E-03
   7.64399990E-02  -2.45244149E-03
   7.66500011E-02  -2.54370668E-03
   7.68600032E-02  -2.62491265E-03
   7.70699978E-02  -2.69548269E-03
   7.72799999E-02  -2.75489152E-03
   7.74900019E-02  -2.80266977E-03
   7.76999965E-02  -2.83840718E-03
   7.79099986E-02  -2.86175590E-03
   7.81200007E-02  -2.87243421E-03
   7.83300027E-02  -2.87022837E-03
   7.85399973E-02  -2.85499496E-03
   7.87499994E-02  -2.82666204E-03
   7.89600015E-02  -2.78523145E-03
   7.91700035E-02  -2.73077819E-03
   7.93799981E-02  -2.66345195E-03
   7.95900002E-02  -2.58347485E-03
   7.98000023E-02  -2.49114260E-03
   8.00099969E-02  -2.38682120E-03
   8.02199990E-02  -2.27094628E-03
   8.04300010E-02  -2.14402005E-03
   8.06400031E-02  -2.00660806E-03
   8.08499977E-02  -1.85933651E-03
   8.10599998E-02  -1.70288747E-03
   8.12700018E-02  -1.53799495E-03
   8.14799964E-02  -1.36544008E-03
   8.16899985E-02  -1.18604570E-03
   8.19000006E-02  -1.00067118E-03
   8.21100026E-02  -8.10206519E-04
   8.23199973E-02  -6.15565921E-04
   8.25299993E-02  -4.17681993E-04
   8.27400014E-02  -2.17499182E-04
   8.29500034E-02  -1.59670690E-05
   8.31599981E-02   1.85966128E-04
   8.33700001E-02   3.87360080E-04
   8.35800022E-02   5.87289047E-04
   8.37899968E-02   7.84848118E-04
   8.39999989E-02   9.79159959E-04
   8.42100009E-02   1.16938003E-03
   8.44200030E-02   1.35470345E-03
   8.46299976E-02   1.53436954E-03
   8.48399997E-02   1.70766772E-03
   8.50500017E-02   1.87394198E-03
   8.52599964E-02   2.03259452E-03
   8.54699984E-02   2.18309066E-03
   8.56800005E-02   2.32496136E-03
   8.58900025E-02   2.45780568E-03
   8.60999972E-02   2.58129369E-03
   8.63099992E-02   2.69516790E-03
   8.65200013E-02   2.79924227E-03
   8.67300034E-02   2.89340504E-03
   8.69399980E-02   2.97761685E-03
   8.71500000E-02   3.05191008E-03
   8.73600021E-02   3.11638694E-03
   8.75699967E-02   3.17121670E-03
   8.77799988E-02   3.21663404E-03
   8.79900008E-02   3.25293420E-03
   8.82000029E-02   3.28046945E-03
   8.84099975E-02   3.29964398E-03
   8.86199996E-02   3.31090973E-03
   8.88300017E-02   3.31475958E-03
   8.90400037E-02   3.31172161E-03
   8.92499983E-02   3.30235367E-03
   8.94600004E-02   3.28723527E-03
   8.96700025E-02   3.26696178E-03
   8.98799971E-02   3.24213691E-03
   9.00899991E-02   3.21336580E-03
   9.03000012E-02   3.18124704E-03
   9.05100033E-02   3.14636598E-03
   9.07199979E-02   3.10928700E-03
   9.09299999E-02   3.07054794E-03
   9.11400020E-02   3.03065195E-03
   9.13499966E-02   2.99006095E-03
   9.15599987E-02   2.94918986E-03
   9.17700008E-02   2.90840096E-03
   9.19800028E-02   2.86799856E-03
   9.21899974E-02   2.82822410E-03
   9.23999995E-02   2.78925174E-03
   9.26100016E-02   2.75118509E-03
   9.28200036E-02   2.71405466E-03
   9.30299982E-02   2.67781480E-03
   9.32400003E-02   2.64234305E-03
   9.34500024E-02   2.60743871E-03
   9.36599970E-02   2.57282401E-03
   9.38699991E-02   2.53814366E-03
   9.40800011E-02   2.50296691E-03
   9.42900032E-02   2.46679084E-03
   9.44999978E-02   2.42904248E-03
   9.47099999E-02   2.38908362E-03
   9.49200019E-02   2.34621507E-03
   9.51299965E-02   2.29968270E-03
   9.53399986E-02   2.24868255E-03
   9.55500007E-02   2.19236873E-03
   9.57600027E-02   2.12986046E-03
   9.59699973E-02   2.06024945E-03
   9.61799994E-02   1.98260928E-03
   9.63900015E-02   1.89600361E-03
   9.66000035E-02   1.79949519E-03
   9.68099982E-02   1.69215561E-03
   9.70200002E-02   1.57307496E-03
   9.72300023E-02   1.44137186E-03
   9.74399969E-02   1.29620230E-03
   9.76499990E-02   1.13677036E-03
   9.78600010E-02   9.62337421E-04
   9.80700031E-02   7.72231375E-04
   9.82799977E-02   5.65856521E-04
   9.84899998E-02   3.42701445E-04
   9.87000018E-02   1.02347811E-04
   9.89099964E-02  -1.55521673E-04
   9.91199985E-02  -4.31116292E-04
   9.93300006E-02  -7.24531070E-04
   9.95400026E-02  -1.03574002E-03
   9.97499973E-02  -1.36459188E-03
   9.99599993E-02  -1.71080523E-03
  0.100170001      -2.07396597E-03
  0.100380003      -2.45352415E-03
  0.100589998      -2.84879236E-03
  0.100800000      -3.25894495E-03
  0.101010002      -3.68301943E-03
  0.101219997      -4.11991682E-03
  0.101429999      -4.56840498E-03
  0.101640001      -5.02712186E-03
  0.101850003      -5.49457734E-03
  0.102059998      -5.96916256E-03
  0.102270000      -6.44915225E-03
  0.102480002      -6.93271495E-03
  0.102689996      -7.41791958E-03
  0.102899998      -7.90274236E-03
  0.103110000      -8.38507805E-03
  0.103320003      -8.86275154E-03
  0.103529997      -9.33352485E-03
  0.103739999      -9.79510974E-03
  0.103950001      -1.02451798E-02
  0.104160003      -1.06813842E-02
  0.104369998      -1.11013539E-02
  0.104580000      -1.15027213E-02
  0.104790002      -1.18831275E-02
  0.104999997      -1.22402376E-02
  0.105209999      -1.25717521E-02
  0.105420001      -1.28754191E-02
  0.105630003      -1.31490473E-02
  0.105839998      -1.33905169E-02
  0.106050000      -1.35977911E-02
  0.106260002      -1.37689300E-02
  0.106470004      -1.39020951E-02
  0.106679998      -1.39955636E-02
  0.106890000      -1.40477354E-02
  0.107100002      -1.40571436E-02
  0.107309997      -1.40224611E-02
  0.107519999      -1.39425080E-02
  0.107730001      -1.38162570E-02
  0.107940003      -1.36428364E-02
  0.108149998      -1.34215411E-02
  0.108360000      -1.31518301E-02
  0.108570002      -1.28333308E-02
  0.108779997      -1.24658421E-02
  0.108989999      -1.20493332E-02
  0.109200001      -1.15839448E-02
  0.109410003      -1.10699888E-02
  0.109619997      -1.05079450E-02
  0.109830000      -9.89846047E-03
  0.110040002      -9.24234744E-03
  0.110250004      -8.54057539E-03
  0.110459998      -7.79427122E-03
  0.110670000      -7.00471131E-03
  0.110880002      -6.17332011E-03
  0.111089997      -5.30165946E-03
  0.111299999      -4.39142482E-03
  0.111510001      -3.44443903E-03
  0.111720003      -2.46264786E-03
  0.111929998      -1.44811010E-03
  0.112140000      -4.02990321E-04
  0.112350002       6.70443289E-04
  0.112559997       1.76983059E-03
  0.112769999       2.89272331E-03
  0.112980001       4.03659185E-03
  0.113190003       5.19883074E-03
  0.113399997       6.37676567E-03
  0.113609999       7.56765902E-03
  0.113820001       8.76871217E-03
  0.114030004       9.97706968E-03
  0.114239998       1.11898324E-02
  0.114450000       1.24040470E-02
  0.114660002       1.36167174E-02
  0.114869997       1.48248067E-02
  0.115079999       1.60252359E-02
  0.115290001       1.72148868E-02
  0.115500003       1.83906015E-02
  0.115709998       1.95491835E-02
  0.115920000       2.06874013E-02
  0.116130002       2.18019765E-02
  0.116339996       2.28895992E-02
  0.116549999       2.39469092E-02
  0.116760001       2.49704942E-02
  0.116970003       2.59569045E-02
  0.117179997       2.69026347E-02
  0.117389999       2.78041214E-02
  0.117600001       2.86577549E-02
  0.117810003       2.94598527E-02
  0.118019998       3.02066710E-02
  0.118230000       3.08943968E-02
  0.118440002       3.15191410E-02
  0.118649997       3.20769511E-02
  0.118859999       3.25637795E-02
  0.119070001       3.29755098E-02
  0.119280003       3.33079398E-02
  0.119489998       3.35567743E-02
  0.119700000       3.37176323E-02
  0.119910002       3.37860473E-02
  0.120119996       3.37574631E-02
  0.120329998       3.36272195E-02
  0.120540000       3.33905816E-02
  0.120750003       3.30427215E-02
  0.120959997       3.25787254E-02
  0.121169999       3.19935903E-02
  0.121380001       3.12822387E-02
  0.121590003       3.04395091E-02
  0.121799998       2.94601694E-02
  0.122010000       2.83389296E-02
  0.122220002       2.70704310E-02
  0.122429997       2.56492700E-02
  0.122639999       2.40699947E-02
  0.122850001       2.23271139E-02
  0.123060003       2.04151124E-02
  0.123269998       1.83284581E-02
  0.123480000       1.60616115E-02
  0.123690002       1.36090396E-02
  0.123899996       1.09652262E-02
  0.124109998       8.12468305E-03
  0.124320000       5.08196279E-03
  0.124530002       1.83167588E-03
  0.124739997      -1.63150381E-03
  0.124949999      -5.31282369E-03
  0.125159994      -9.21743177E-03
  0.125369996      -1.33503731E-02
  0.125579998      -1.77165717E-02
  0.125790000      -2.23208088E-02
  0.126000002      -2.71677282E-02
  0.126210004      -3.22618112E-02
  0.126420006      -3.76073569E-02
  0.126629993      -4.32084836E-02
  0.126839995      -4.90690991E-02
  0.127049997      -5.51929139E-02
  0.127260000      -6.15834109E-02
  0.127470002      -6.82438388E-02
  0.127680004      -7.51771852E-02
  0.127890006      -8.23862106E-02
  0.128099993      -8.98733884E-02
  0.128309995      -9.76409242E-02
  0.128519997     -0.105690777    
  0.128729999     -0.114024557    
  0.128940001     -0.122643627    
  0.129150003     -0.131549031    
  0.129360005     -0.140741512    
  0.129570007     -0.150221497    
  0.129779994     -0.159989119    
  0.129989997     -0.170044184    
  0.130199999     -0.180386156    
  0.130410001     -0.191014245    
  0.130620003     -0.201927260    
  0.130830005     -0.213123754    
  0.131040007     -0.224601895    
  0.131249994     -0.236359611    
  0.131459996     -0.248394474    
  0.131669998     -0.260703743    
  0.131880000     -0.273284376    
  0.132090002     -0.286133021    
  0.132300004     -0.299246013    
  0.132510006     -0.312619418    
  0.132719994     -0.326248974    
  0.132929996     -0.340130150    
  0.133139998     -0.354258209    
  0.133350000     -0.368627965    
  0.133560002     -0.383234173    
  0.133770004     -0.398071170    
  0.133980006     -0.413133144    
  0.134189993     -0.428413957    
  0.134399995     -0.443907291    
  0.134609997     -0.459606647    
  0.134819999     -0.475505203    
  0.135030001     -0.491595984    
  0.135240003     -0.507871807    
  0.135450006     -0.524325371    
  0.135659993     -0.540949106    
  0.135869995     -0.557735324    
  0.136079997     -0.574676156    
  0.136289999     -0.591763556    
  0.136500001     -0.608989418    
  0.136710003     -0.626345515    
  0.136920005     -0.643823445    
  0.137130007     -0.661414683    
  0.137339994     -0.679110706    
  0.137549996     -0.696902812    
  0.137759998     -0.714782298    
  0.137970001     -0.732740462    
  0.138180003     -0.750768483    
  0.138390005     -0.768857479    
  0.138600007     -0.786998689    
  0.138809994     -0.805183172    
  0.139019996     -0.823402166    
  0.139229998     -0.841646791    
  0.139440000     -0.859908283    
  0.139650002     -0.878177881    
  0.139860004     -0.896446943    
  0.140070006     -0.914706945    
  0.140279993     -0.932949305    
  0.140489995     -0.951165617    
  0.140699998     -0.969347715    
  0.140910000     -0.987487257    
  0.141120002      -1.00557637    
  0.141330004      -1.02360702    
  0.141540006      -1.04157162    
  0.141749993      -1.05946255    
  0.141959995      -1.07727253    
  0.142169997      -1.09499443    
  0.142379999      -1.11262131    
  0.142590001      -1.13014615    
  0.142800003      -1.14756274    
  0.143010005      -1.16486466    
  0.143220007      -1.18204582    
  0.143429995      -1.19910049    
  0.143639997      -1.21602321    
  0.143849999      -1.23280859    
  0.144060001      -1.24945152    
  0.144270003      -1.26594722    
  0.144480005      -1.28229141    
  0.144690007      -1.29847980    
  0.144899994      -1.31450832    
  0.145109996      -1.33037341    
  0.145319998      -1.34607160    
  0.145530000      -1.36159980    
  0.145740002      -1.37695515    
  0.145950004      -1.39213502    
  0.146160007      -1.40713716    
  0.146369994      -1.42195952    
  0.146579996      -1.43660021    
  0.146789998      -1.45105779    
  0.147000000      -1.46533096    
  0.147210002      -1.47941875    
  0.147420004      -1.49332011    
  0.147630006      -1.50703466    
  0.147839993      -1.52056205    
  0.148049995      -1.53390193    
  0.148259997      -1.54705441    
  0.148469999      -1.56001973    
  0.148680001      -1.57279837    
  0.148890004      -1.58539093    
  0.149100006      -1.59779823    
  0.149309993      -1.61002123    
  0.149519995      -1.62206078    
  0.149729997      -1.63391829    
  0.149939999      -1.64559507    
  0.150150001      -1.65709269    
  0.150360003      -1.66841280    
  0.150570005      -1.67955709    
  0.150780007      -1.69052732    
  0.150989994      -1.70132554    
  0.151199996      -1.71195388    
  0.151409999      -1.72241437    
  0.151620001      -1.73270941    
  0.151830003      -1.74284124    
  0.152040005      -1.75281239    
  0.152250007      -1.76262534    
  0.152459994      -1.77228272    
  0.152669996      -1.78178728    
  0.152879998      -1.79114163    
  0.153090000      -1.80034888    
  0.153300002      -1.80941200    
  0.153510004      -1.81833386    
  0.153720006      -1.82711780    
  0.153929994      -1.83576703    
  0.154139996      -1.84428501    
  0.154349998      -1.85267520    
  0.154560000      -1.86094129    
  0.154770002      -1.86908698    
  0.154980004      -1.87711596    
  0.155190006      -1.88503253    
  0.155399993      -1.89284050    
  0.155609995      -1.90054429    
  0.155819997      -1.90814805    
  0.156029999      -1.91565669    
  0.156240001      -1.92307448    
  0.156450003      -1.93040645    
  0.156660005      -1.93765759    
  0.156869993      -1.94483304    
  0.157079995      -1.95193791    
  0.157289997      -1.95897794    
  0.157499999      -1.96595860    
  0.157710001      -1.97288561    
  0.157920003      -1.97976470    
  0.158130005      -1.98660219    
  0.158340007      -1.99340391    
  0.158549994      -2.00017643    
  0.158759996      -2.00692582    
  0.158969998      -2.01365900    
  0.159180000      -2.02038240    
  0.159390002      -2.02710295    
  0.159600005      -2.03382754    
  0.159810007      -2.04056263    
  0.160019994      -2.04731512    
  0.160229996      -2.05409265    
  0.160439998      -2.06090140    
  0.160650000      -2.06774902    
  0.160860002      -2.07464218    
  0.161070004      -2.08158779    
  0.161280006      -2.08859301    
  0.161489993      -2.09566426    
  0.161699995      -2.10280824    
  0.161909997      -2.11003184    
  0.162120000      -2.11734128    
  0.162330002      -2.12474298    
  0.162540004      -2.13224292    
  0.162750006      -2.13984704    
  0.162959993      -2.14756107    
  0.163169995      -2.15539050    
  0.163379997      -2.16334057    
  0.163589999      -2.17141581    
  0.163800001      -2.17962098    
  0.164010003      -2.18796062    
  0.164220005      -2.19643831    
  0.164430007      -2.20505786    
  0.164639995      -2.21382213    
  0.164849997      -2.22273397    
  0.165059999      -2.23179579    
  0.165270001      -2.24100947    
  0.165480003      -2.25037694    
  0.165690005      -2.25989914    
  0.165900007      -2.26957703    
  0.166109994      -2.27941084    
  0.166319996      -2.28940034    
  0.166529998      -2.29954505    
  0.166740000      -2.30984402    
  0.166950002      -2.32029605    
  0.167160004      -2.33089900    
  0.167370006      -2.34165096    
  0.167579994      -2.35254931    
  0.167789996      -2.36359096    
  0.167999998      -2.37477279    
  0.168210000      -2.38609099    
  0.168420002      -2.39754152    
  0.168630004      -2.40911961    
  0.168840006      -2.42082119    
  0.169049993      -2.43264103    
  0.169259995      -2.44457412    
  0.169469997      -2.45661497    
  0.169679999      -2.46875811    
  0.169890001      -2.48099732    
  0.170100003      -2.49332714    
  0.170310006      -2.50574136    
  0.170519993      -2.51823354    
  0.170729995      -2.53079748    
  0.170939997      -2.54342675    
  0.171149999      -2.55611539    
  0.171360001      -2.56885695    
  0.171570003      -2.58164501    
  0.171780005      -2.59447336    
  0.171990007      -2.60733557    
  0.172199994      -2.62022567    
  0.172409996      -2.63313794    
  0.172619998      -2.64606643    
  0.172830001      -2.65900564    
  0.173040003      -2.67194963    
  0.173250005      -2.68489361    
  0.173460007      -2.69783235    
  0.173669994      -2.71076083    
  0.173879996      -2.72367454    
  0.174089998      -2.73656964    
  0.174300000      -2.74944115    
  0.174510002      -2.76228571    
  0.174720004      -2.77509952    
  0.174930006      -2.78787971    
  0.175139993      -2.80062270    
  0.175349995      -2.81332564    
  0.175559998      -2.82598639    
  0.175770000      -2.83860207    
  0.175980002      -2.85117102    
  0.176190004      -2.86369133    
  0.176400006      -2.87616158    
  0.176609993      -2.88857985    
  0.176819995      -2.90094543    
  0.177029997      -2.91325688    
  0.177239999      -2.92551374    
  0.177450001      -2.93771505    
  0.177660003      -2.94986010    
  0.177870005      -2.96194839    
  0.178080007      -2.97397995    
  0.178289995      -2.98595405    
  0.178499997      -2.99787045    
  0.178709999      -3.00972891    
  0.178920001      -3.02152920    
  0.179130003      -3.03327107    
  0.179340005      -3.04495406    
  0.179550007      -3.05657768    
  0.179759994      -3.06814194    