   0.00000000       0.00000000    
   2.09999998E-04   0.00000000    
   4.19999997E-04   0.00000000    
   6.30000024E-04   0.00000000    
   8.39999993E-04  -3.03226059E-20
   1.04999996E-03  -3.13662468E-19
   1.26000005E-03  -1.74971530E-18
   1.47000002E-03  -7.01704427E-18
   1.67999999E-03  -2.27021175E-17
   1.88999996E-03  -6.29857935E-17
   2.09999993E-03  -1.55532812E-16
   2.30999989E-03  -3.50339206E-16
   2.52000010E-03  -7.32389314E-16
   2.73000007E-03  -1.43903560E-15
   2.94000003E-03  -2.68305225E-15
   3.15000000E-03  -4.78234294E-15
   3.35999997E-03  -8.19720200E-15
   3.56999994E-03  -1.35759129E-14
   3.77999991E-03  -2.18094026E-14
   3.99000011E-03  -3.40954343E-14
   4.19999985E-03  -5.20124545E-14
   4.41000005E-03  -7.76027802E-14
   4.61999979E-03  -1.13464617E-13
   4.82999999E-03  -1.62851937E-13
   5.04000019E-03  -2.29780198E-13
   5.24999993E-03  -3.19135587E-13
   5.46000013E-03  -4.36785590E-13
   5.66999987E-03  -5.89685635E-13
   5.88000007E-03  -7.85979029E-13
   6.08999981E-03  -1.03508424E-12
   6.30000001E-03  -1.34776272E-12
   6.51000021E-03  -1.73615961E-12
   6.71999995E-03  -2.21381810E-12
   6.93000015E-03  -2.79564371E-12
   7.13999989E-03  -3.49782009E-12
   7.35000009E-03  -4.33767258E-12
   7.55999982E-03  -5.33345850E-12
   7.77000003E-03  -6.50408286E-12
   7.98000023E-03  -7.86871783E-12
   8.19000043E-03  -9.44633694E-12
   8.39999970E-03  -1.12551340E-11
   8.60999990E-03  -1.33118403E-11
   8.82000010E-03  -1.56309167E-11
   9.03000031E-03  -1.82236344E-11
   9.23999958E-03  -2.10970182E-11
   9.44999978E-03  -2.42526658E-11
   9.65999998E-03  -2.76854529E-11
   9.87000018E-03  -3.13821157E-11
   1.00800004E-02  -3.53197090E-11
   1.02899997E-02  -3.94639842E-11
   1.04999999E-02  -4.37676978E-11
   1.07100001E-02  -4.81688300E-11
   1.09200003E-02  -5.25888048E-11
   1.11300005E-02  -5.69306963E-11
   1.13399997E-02  -6.10774209E-11
   1.15499999E-02  -6.48901072E-11
   1.17600001E-02  -6.82064127E-11
   1.19700003E-02  -7.08391817E-11
   1.21799996E-02  -7.25751403E-11
   1.23899998E-02  -7.31739946E-11
   1.26000000E-02  -7.23678617E-11
   1.28100002E-02  -6.98609989E-11
   1.30200004E-02  -6.53300261E-11
   1.32299997E-02  -5.84247511E-11
   1.34399999E-02  -4.87695509E-11
   1.36500001E-02  -3.59651649E-11
   1.38600003E-02  -1.95916096E-11
   1.40699996E-02   7.88273472E-13
   1.42799998E-02   2.56248443E-11
   1.44900000E-02   5.53762522E-11
   1.47000002E-02   9.05023972E-11
   1.49100004E-02   1.31458011E-10
   1.51199996E-02   1.78684414E-10
   1.53299998E-02   2.32600980E-10
   1.55400001E-02   2.93595065E-10
   1.57500003E-02   3.62011227E-10
   1.59600005E-02   4.38139525E-10
   1.61700007E-02   5.22203281E-10
   1.63800009E-02   6.14345963E-10
   1.65899992E-02   7.14617310E-10
   1.67999994E-02   8.22959201E-10
   1.70099996E-02   9.39190725E-10
   1.72199998E-02   1.06299303E-09
   1.74300000E-02   1.19389576E-09
   1.76400002E-02   1.33126210E-09
   1.78500004E-02   1.47427404E-09
   1.80600006E-02   1.62191993E-09
   1.82700008E-02   1.77298143E-09
   1.84799992E-02   1.92602312E-09
   1.86899994E-02   2.07938289E-09
   1.88999996E-02   2.23116392E-09
   1.91099998E-02   2.37923059E-09
   1.93200000E-02   2.52120458E-09
   1.95300002E-02   2.65446465E-09
   1.97400004E-02   2.77615086E-09
   1.99500006E-02   2.88317059E-09
   2.01600008E-02   2.97220915E-09
   2.03699991E-02   3.03974379E-09
   2.05799993E-02   3.08206283E-09
   2.07899995E-02   3.09528803E-09
   2.09999997E-02   3.07540327E-09
   2.12099999E-02   3.01828518E-09
   2.14200001E-02   2.91974245E-09
   2.16300003E-02   2.77555623E-09
   2.18400005E-02   2.58152721E-09
   2.20500007E-02   2.33352626E-09
   2.22600009E-02   2.02755190E-09
   2.24699993E-02   1.65978864E-09
   2.26799995E-02   1.22667176E-09
   2.28899997E-02   7.24955096E-10
   2.30999999E-02   1.51777965E-10
   2.33100001E-02  -4.95257224E-10
   2.35200003E-02  -1.21801191E-09
   2.37300005E-02  -2.01773620E-09
   2.39400007E-02  -2.89499469E-09
   2.41500009E-02  -3.84958687E-09
   2.43599992E-02  -4.88047558E-09
   2.45699994E-02  -5.98571459E-09
   2.47799996E-02  -7.16237825E-09
   2.49899998E-02  -8.40650394E-09
   2.52000000E-02  -9.71302949E-09
   2.54100002E-02  -1.10757403E-08
   2.56200004E-02  -1.24872308E-08
   2.58300006E-02  -1.39388652E-08
   2.60400008E-02  -1.54207562E-08
   2.62499992E-02  -1.69217547E-08
   2.64599994E-02  -1.84294411E-08
   2.66699996E-02  -1.99301411E-08
   2.68799998E-02  -2.14089528E-08
   2.70900000E-02  -2.28497896E-08
   2.73000002E-02  -2.42354403E-08
   2.75100004E-02  -2.55476351E-08
   2.77200006E-02  -2.67671378E-08
   2.79300008E-02  -2.78738526E-08
   2.81399991E-02  -2.88469586E-08
   2.83499993E-02  -2.96650313E-08
   2.85599995E-02  -3.03062144E-08
   2.87699997E-02  -3.07483994E-08
   2.89799999E-02  -3.09693995E-08
   2.91900001E-02  -3.09471702E-08
   2.94000003E-02  -3.06600256E-08
   2.96100006E-02  -3.00868557E-08
   2.98200008E-02  -2.92073938E-08
   3.00299991E-02  -2.80024537E-08
   3.02399993E-02  -2.64541899E-08
   3.04499995E-02  -2.45463809E-08
   3.06599997E-02  -2.22646808E-08
   3.08699999E-02  -1.95968948E-08
   3.10800001E-02  -1.65332565E-08
   3.12899984E-02  -1.30666820E-08
   3.15000005E-02  -9.19303478E-09
   3.17099988E-02  -4.91137353E-09
   3.19200009E-02  -2.24186808E-10
   3.21299993E-02   4.86239227E-09
   3.23400013E-02   1.03383817E-08
   3.25499997E-02   1.61897749E-08
   3.27600017E-02   2.23983871E-08
   3.29700001E-02   2.89417255E-08
   3.31799984E-02   3.57929082E-08
   3.33900005E-02   4.29205862E-08
   3.35999988E-02   5.02889286E-08
   3.38100009E-02   5.78576440E-08
   3.40199992E-02   6.55820216E-08
   3.42300013E-02   7.34130197E-08
   3.44399996E-02   8.12974150E-08
   3.46500017E-02   8.91780019E-08
   3.48600000E-02   9.69937659E-08
   3.50699984E-02   1.04680211E-07
   3.52800004E-02   1.12169637E-07
   3.54899988E-02   1.19391530E-07
   3.57000008E-02   1.26272951E-07
   3.59099992E-02   1.32739004E-07
   3.61200012E-02   1.38713304E-07
   3.63299996E-02   1.44118459E-07
   3.65400016E-02   1.48876751E-07
   3.67500000E-02   1.52910658E-07
   3.69599983E-02   1.56143415E-07
   3.71700004E-02   1.58499788E-07
   3.73799987E-02   1.59906662E-07
   3.75900008E-02   1.60293766E-07
   3.77999991E-02   1.59594336E-07
   3.80100012E-02   1.57745845E-07
   3.82199995E-02   1.54690682E-07
   3.84300016E-02   1.50376877E-07
   3.86399999E-02   1.44758758E-07
   3.88499983E-02   1.37797656E-07
   3.90600003E-02   1.29462492E-07
   3.92699987E-02   1.19730501E-07
   3.94800007E-02   1.08587706E-07
   3.96899991E-02   9.60294742E-08
   3.99000011E-02   8.20610424E-08
   4.01099995E-02   6.66979219E-08
   4.03200015E-02   4.99663209E-08
   4.05299999E-02   3.19034150E-08
   4.07399982E-02   1.25576269E-08
   4.09500003E-02  -8.01122457E-09
   4.11599986E-02  -2.97318437E-08
   4.13700007E-02  -5.25214183E-08
   4.15799990E-02  -7.62856800E-08
   4.17900011E-02  -1.00919017E-07
   4.19999994E-02  -1.26304840E-07
   4.22100015E-02  -1.52315806E-07
   4.24199998E-02  -1.78814290E-07
   4.26299982E-02  -2.05652867E-07
   4.28400002E-02  -2.32675006E-07
   4.30499986E-02  -2.59715563E-07
   4.32600006E-02  -2.86601676E-07
   4.34699990E-02  -3.13153663E-07
   4.36800011E-02  -3.39185874E-07
   4.38899994E-02  -3.64507684E-07
   4.41000015E-02  -3.88924661E-07
   4.43099998E-02  -4.12239672E-07
   4.45200019E-02  -4.34253906E-07
   4.47300002E-02  -4.54768383E-07
   4.49399985E-02  -4.73585146E-07
   4.51500006E-02  -4.90508569E-07
   4.53599989E-02  -5.05346691E-07
   4.55700010E-02  -5.17912724E-07
   4.57799993E-02  -5.28026305E-07
   4.59900014E-02  -5.35514857E-07
   4.61999997E-02  -5.40215353E-07
   4.64100018E-02  -5.41975055E-07
   4.66200002E-02  -5.40653502E-07
   4.68299985E-02  -5.36123537E-07
   4.70400006E-02  -5.28272381E-07
   4.72499989E-02  -5.17003286E-07
   4.74600010E-02  -5.02236446E-07
   4.76699993E-02  -4.83910242E-07
   4.78800014E-02  -4.61982154E-07
   4.80899997E-02  -4.36429673E-07
   4.83000018E-02  -4.07251179E-07
   4.85100001E-02  -3.74466765E-07
   4.87199984E-02  -3.38118639E-07
   4.89300005E-02  -2.98272056E-07
   4.91399989E-02  -2.55015294E-07
   4.93500009E-02  -2.08460051E-07
   4.95599993E-02  -1.58741827E-07
   4.97700013E-02  -1.06019755E-07
   4.99799997E-02  -5.04764195E-08
   5.01900017E-02   7.68227260E-09
   5.04000001E-02   6.82277985E-08
   5.06099984E-02   1.30909385E-07
   5.08200005E-02   1.95454390E-07
   5.10299988E-02   2.61569596E-07
   5.12400009E-02   3.28941837E-07
   5.14499992E-02   3.97239603E-07
   5.16600013E-02   4.66113875E-07
   5.18699996E-02   5.35199547E-07
   5.20800017E-02   6.04117190E-07
   5.22900000E-02   6.72474698E-07
   5.24999984E-02   7.39869279E-07
   5.27100004E-02   8.05888874E-07
   5.29199988E-02   8.70114320E-07
   5.31300008E-02   9.32121623E-07
   5.33399992E-02   9.91484171E-07
   5.35500012E-02   1.04777530E-06
   5.37599996E-02   1.10057022E-06
   5.39700016E-02   1.14944862E-06
   5.41800000E-02   1.19399738E-06
   5.43899983E-02   1.23381312E-06
   5.46000004E-02   1.26850466E-06
   5.48099987E-02   1.29769580E-06
   5.50200008E-02   1.32102798E-06
   5.52299991E-02   1.33816286E-06
   5.54400012E-02   1.34878496E-06
   5.56499995E-02   1.35260450E-06
   5.58600016E-02   1.34935954E-06
   5.60699999E-02   1.33881872E-06
   5.62799983E-02   1.32078389E-06
   5.64900003E-02   1.29509215E-06
   5.66999987E-02   1.26161797E-06
   5.69100007E-02   1.22027586E-06
   5.71199991E-02   1.17102195E-06
   5.73300011E-02   1.11385555E-06
   5.75399995E-02   1.04882145E-06
   5.77500015E-02   9.76010710E-07
   5.79599999E-02   8.95562380E-07
   5.81699982E-02   8.07664321E-07
   5.83800003E-02   7.12553685E-07
   5.85899986E-02   6.10517873E-07
   5.88000007E-02   5.01894988E-07
   5.90099990E-02   3.87073158E-07
   5.92200011E-02   2.66490616E-07
   5.94299994E-02   1.40635436E-07
   5.96400015E-02   1.00439230E-08
   5.98499998E-02  -1.24700577E-07
   6.00599982E-02  -2.62968996E-07
   6.02700002E-02  -4.04088894E-07
   6.04799986E-02  -5.47345962E-07
   6.06900007E-02  -6.91987395E-07
   6.08999990E-02  -8.37224491E-07
   6.11100011E-02  -9.82236202E-07
   6.13199994E-02  -1.12617295E-06
   6.15300015E-02  -1.26816042E-06
   6.17399998E-02  -1.40730356E-06
   6.19499981E-02  -1.54269208E-06
   6.21600002E-02  -1.67340534E-06
   6.23699985E-02  -1.79851679E-06
   6.25799969E-02  -1.91709933E-06
   6.27899989E-02  -2.02823253E-06
   6.30000010E-02  -2.13100770E-06
   6.32100031E-02  -2.22453377E-06
   6.34199977E-02  -2.30794467E-06
   6.36299998E-02  -2.38040388E-06
   6.38400018E-02  -2.44111220E-06
   6.40499964E-02  -2.48931633E-06
   6.42599985E-02  -2.52431141E-06
   6.44700006E-02  -2.54545034E-06
   6.46800026E-02  -2.55215036E-06
   6.48899972E-02  -2.54389693E-06
   6.50999993E-02  -2.52025256E-06
   6.53100014E-02  -2.48086235E-06
   6.55200034E-02  -2.42545866E-06
   6.57299981E-02  -2.35386665E-06
   6.59400001E-02  -2.26600946E-06
   6.61500022E-02  -2.16191302E-06
   6.63599968E-02  -2.04170942E-06
   6.65699989E-02  -1.90563992E-06
   6.67800009E-02  -1.75406080E-06
   6.69900030E-02  -1.58744331E-06
   6.71999976E-02  -1.40637519E-06
   6.74099997E-02  -1.21156143E-06
   6.76200017E-02  -1.00382476E-06
   6.78299963E-02  -7.84106646E-07
   6.80399984E-02  -5.53463565E-07
   6.82500005E-02  -3.13065499E-07
   6.84600025E-02  -6.41921858E-08
   6.86699972E-02   1.91769828E-07
   6.88799992E-02   4.53332632E-07
   6.90900013E-02   7.18914691E-07
   6.93000033E-02   9.86844498E-07
   6.95099980E-02   1.25536940E-06
   6.97200000E-02   1.52266603E-06
   6.99300021E-02   1.78684729E-06
   7.01399967E-02   2.04597222E-06
   7.03499988E-02   2.29805983E-06
   7.05600008E-02   2.54109887E-06
   7.07700029E-02   2.77306026E-06
   7.09799975E-02   2.99191083E-06
   7.11899996E-02   3.19562628E-06
   7.14000016E-02   3.38220684E-06
   7.16100037E-02   3.54968847E-06
   7.18199983E-02   3.69616168E-06
   7.20300004E-02   3.81978407E-06
   7.22400025E-02   3.91879576E-06
   7.24499971E-02   3.99153532E-06
   7.26599991E-02   4.03645572E-06
   7.28700012E-02   4.05213768E-06
   7.30800033E-02   4.03730519E-06
   7.32899979E-02   3.99083820E-06
   7.34999999E-02   3.91178992E-06
   7.37100020E-02   3.79939684E-06
   7.39199966E-02   3.65309461E-06
   7.41299987E-02   3.47252490E-06
   7.43400007E-02   3.25754922E-06
   7.45500028E-02   3.00825764E-06
   7.47599974E-02   2.72497300E-06
   7.49699995E-02   2.40826739E-06
   7.51800016E-02   2.05896049E-06
   7.53900036E-02   1.67812402E-06
   7.55999982E-02   1.26708687E-06
   7.58100003E-02   8.27433098E-07
   7.60200024E-02   3.61005817E-07
   7.62299970E-02  -1.30097320E-07
   7.64399990E-02  -6.43534008E-07
   7.66500011E-02  -1.17671448E-06
   7.68600032E-02  -1.72681507E-06
   7.70699978E-02  -2.29078387E-06
   7.72799999E-02  -2.86535533E-06
   7.74900019E-02  -3.44706041E-06
   7.76999965E-02  -4.03224431E-06
   7.79099986E-02  -4.61708714E-06
   7.81200007E-02  -5.19761397E-06
   7.83300027E-02  -5.76971752E-06
   7.85399973E-02  -6.32917909E-06
   7.87499994E-02  -6.87168949E-06
   7.89600015E-02  -7.39288362E-06
   7.91700035E-02  -7.88835496E-06
   7.93799981E-02  -8.35368246E-06
   7.95900002E-02  -8.78446190E-06
   7.98000023E-02  -9.17632860E-06
   8.00099969E-02  -9.52498795E-06
   8.02199990E-02  -9.82624988E-06
   8.04300010E-02  -1.00760444E-05
   8.06400031E-02  -1.02704544E-05
   8.08499977E-02  -1.04057544E-05
   8.10599998E-02  -1.04784312E-05
   8.12700018E-02  -1.04852061E-05
   8.14799964E-02  -1.04230694E-05
   8.16899985E-02  -1.02893046E-05
   8.19000006E-02  -1.00815087E-05
   8.21100026E-02  -9.79761444E-06
   8.23199973E-02  -9.43591749E-06
   8.25299993E-02  -8.99509814E-06
   8.27400014E-02  -8.47423144E-06
   8.29500034E-02  -7.87280896E-06
   8.31599981E-02  -7.19075206E-06
   8.33700001E-02  -6.42841678E-06
   8.35800022E-02  -5.58661532E-06
   8.37899968E-02  -4.66661595E-06
   8.39999989E-02  -3.67014400E-06
   8.42100009E-02  -2.59938952E-06
   8.44200030E-02  -1.45700346E-06
   8.46299976E-02  -2.46095652E-07
   8.48399997E-02   1.02976912E-06
   8.50500017E-02   2.36658434E-06
   8.52599964E-02   3.75991294E-06
   8.54699984E-02   5.20490084E-06
   8.56800005E-02   6.69628980E-06
   8.58900025E-02   8.22843504E-06
   8.60999972E-02   9.79532888E-06
   8.63099992E-02   1.13906262E-05
   8.65200013E-02   1.30076678E-05
   8.67300034E-02   1.46395105E-05
   8.69399980E-02   1.62789420E-05
   8.71500000E-02   1.79185245E-05
   8.73600021E-02   1.95506218E-05
   8.75699967E-02   2.11674251E-05
   8.77799988E-02   2.27610017E-05
   8.79900008E-02   2.43233171E-05
   8.82000029E-02   2.58462660E-05
   8.84099975E-02   2.73217265E-05
   8.86199996E-02   2.87415678E-05
   8.88300017E-02   3.00977008E-05
   8.90400037E-02   3.13821038E-05
   8.92499983E-02   3.25868641E-05
   8.94600004E-02   3.37042002E-05
   8.96700025E-02   3.47265050E-05
   8.98799971E-02   3.56463679E-05
   9.00899991E-02   3.64566113E-05
   9.03000012E-02   3.71503011E-05
   9.05100033E-02   3.77207834E-05
   9.07199979E-02   3.81617210E-05
   9.09299999E-02   3.84670748E-05
   9.11400020E-02   3.86311731E-05
   9.13499966E-02   3.86487191E-05
   9.15599987E-02   3.85147723E-05
   9.17700008E-02   3.82247927E-05
   9.19800028E-02   3.77746583E-05
   9.21899974E-02   3.71606438E-05
   9.23999995E-02   3.63794679E-05
   9.26100016E-02   3.54282784E-05
   9.28200036E-02   3.43046740E-05
   9.30299982E-02   3.30066869E-05
   9.32400003E-02   3.15327779E-05
   9.34500024E-02   2.98818686E-05
   9.36599970E-02   2.80533350E-05
   9.38699991E-02   2.60470024E-05
   9.40800011E-02   2.38631292E-05
   9.42900032E-02   2.15024393E-05
   9.44999978E-02   1.89660914E-05
   9.47099999E-02   1.62556680E-05
   9.49200019E-02   1.33732228E-05
   9.51299965E-02   1.03212560E-05
   9.53399986E-02   7.10268705E-06
   9.55500007E-02   3.72087447E-06
   9.57600027E-02   1.79630831E-07
   9.59699973E-02  -3.51679046E-06
   9.61799994E-02  -7.36365701E-06
   9.63900015E-02  -1.13557935E-05
   9.66000035E-02  -1.54875561E-05
   9.68099982E-02  -1.97528261E-05
   9.70200002E-02  -2.41450234E-05
   9.72300023E-02  -2.86570448E-05
   9.74399969E-02  -3.32812815E-05
   9.76499990E-02  -3.80095771E-05
   9.78600010E-02  -4.28332387E-05
   9.80700031E-02  -4.77430258E-05
   9.82799977E-02  -5.27291049E-05
   9.84899998E-02  -5.77810388E-05
   9.87000018E-02  -6.28877751E-05
   9.89099964E-02  -6.80376179E-05
   9.91199985E-02  -7.32181652E-05
   9.93300006E-02  -7.84163567E-05
   9.95400026E-02  -8.36184117E-05
   9.97499973E-02  -8.88098220E-05
   9.99599993E-02  -9.39753154E-05
  0.100170001      -9.90988992E-05
  0.100380003      -1.04163744E-04
  0.100589998      -1.09152235E-04
  0.100800000      -1.14045986E-04
  0.101010002      -1.18825803E-04
  0.101219997      -1.23471662E-04
  0.101429999      -1.27962776E-04
  0.101640001      -1.32277550E-04
  0.101850003      -1.36393617E-04
  0.102059998      -1.40287884E-04
  0.102270000      -1.43936530E-04
  0.102480002      -1.47315062E-04
  0.102689996      -1.50398337E-04
  0.102899998      -1.53160610E-04
  0.103110000      -1.55575661E-04
  0.103320003      -1.57616814E-04
  0.103529997      -1.59257033E-04
  0.103739999      -1.60468975E-04
  0.103950001      -1.61225122E-04
  0.104160003      -1.61497868E-04
  0.104369998      -1.61259653E-04
  0.104580000      -1.60483061E-04
  0.104790002      -1.59140996E-04
  0.104999997      -1.57206770E-04
  0.105209999      -1.54654248E-04
  0.105420001      -1.51458051E-04
  0.105630003      -1.47593746E-04
  0.105839998      -1.43037891E-04
  0.106050000      -1.37768278E-04
  0.106260002      -1.31764114E-04
  0.106470004      -1.25006249E-04
  0.106679998      -1.17477284E-04
  0.106890000      -1.09161760E-04
  0.107100002      -1.00046425E-04
  0.107309997      -9.01203239E-05
  0.107519999      -7.93750660E-05
  0.107730001      -6.78049400E-05
  0.107940003      -5.54071339E-05
  0.108149998      -4.21819495E-05
  0.108360000      -2.81328666E-05
  0.108570002      -1.32668210E-05
  0.108779997       2.40571990E-06
  0.108989999       1.88705890E-05
  0.109200001       3.61097773E-05
  0.109410003       5.41013396E-05
  0.109619997       7.28192972E-05
  0.109830000       9.22334657E-05
  0.110040002       1.12309353E-04
  0.110250004       1.33008216E-04
  0.110459998       1.54287016E-04
  0.110670000       1.76098314E-04
  0.110880002       1.98390364E-04
  0.111089997       2.21106995E-04
  0.111299999       2.44187628E-04
  0.111510001       2.67567462E-04
  0.111720003       2.91177450E-04
  0.111929998       3.14944395E-04
  0.112140000       3.38791171E-04
  0.112350002       3.62636696E-04
  0.112559997       3.86396190E-04
  0.112769999       4.09981265E-04
  0.112980001       4.33300273E-04
  0.113190003       4.56258305E-04
  0.113399997       4.78757633E-04
  0.113609999       5.00697759E-04
  0.113820001       5.21975802E-04
  0.114030004       5.42487018E-04
  0.114239998       5.62124478E-04
  0.114450000       5.80779801E-04
  0.114660002       5.98343613E-04
  0.114869997       6.14705612E-04
  0.115079999       6.29755028E-04
  0.115290001       6.43380859E-04
  0.115500003       6.55472337E-04
  0.115709998       6.65919390E-04
  0.115920000       6.74612646E-04
  0.116130002       6.81444304E-04
  0.116339996       6.86308136E-04
  0.116549999       6.89100067E-04
  0.116760001       6.89718407E-04
  0.116970003       6.88064320E-04
  0.117179997       6.84042054E-04
  0.117389999       6.77559525E-04
  0.117600001       6.68528548E-04
  0.117810003       6.56864897E-04
  0.118019998       6.42489060E-04
  0.118230000       6.25326473E-04
  0.118440002       6.05307578E-04
  0.118649997       5.82368404E-04
  0.118859999       5.56450628E-04
  0.119070001       5.27501805E-04
  0.119280003       4.95476008E-04
  0.119489998       4.60333540E-04
  0.119700000       4.22041485E-04
  0.119910002       3.80573765E-04
  0.120119996       3.35911347E-04
  0.120329998       2.88042444E-04
  0.120540000       2.36962544E-04
  0.120750003       1.82674703E-04
  0.120959997       1.25189472E-04
  0.121169999       6.45251348E-05
  0.121380001       7.07742004E-07
  0.121590003      -6.62288730E-05
  0.121799998      -1.36243048E-04
  0.122010000      -2.09285165E-04
  0.122220002      -2.85297690E-04
  0.122429997      -3.64215288E-04
  0.122639999      -4.45964775E-04
  0.122850001      -5.30464924E-04
  0.123060003      -6.17626822E-04
  0.123269998      -7.07353582E-04
  0.123480000      -7.99540721E-04
  0.123690002      -8.94076074E-04
  0.123899996      -9.90839791E-04
  0.124109998      -1.08970446E-03
  0.124320000      -1.19053549E-03
  0.124530002      -1.29319075E-03
  0.124739997      -1.39752089E-03
  0.124949999      -1.50336954E-03
  0.125159994      -1.61057326E-03
  0.125369996      -1.71896163E-03
  0.125579998      -1.82835793E-03
  0.125790000      -1.93857797E-03
  0.126000002      -2.04943190E-03
  0.126210004      -2.16072332E-03
  0.126420006      -2.27224943E-03
  0.126629993      -2.38380115E-03
  0.126839995      -2.49516428E-03
  0.127049997      -2.60611880E-03
  0.127260000      -2.71643861E-03
  0.127470002      -2.82589300E-03
  0.127680004      -2.93424563E-03
  0.127890006      -3.04125599E-03
  0.128099993      -3.14667844E-03
  0.128309995      -3.25026270E-03
  0.128519997      -3.35175497E-03
  0.128729999      -3.45089752E-03
  0.128940001      -3.54742864E-03
  0.129150003      -3.64108384E-03
  0.129360005      -3.73159489E-03
  0.129570007      -3.81869194E-03
  0.129779994      -3.90210212E-03
  0.129989997      -3.98155162E-03
  0.130199999      -4.05676384E-03
  0.130410001      -4.12746193E-03
  0.130620003      -4.19336790E-03
  0.130830005      -4.25420469E-03
  0.131040007      -4.30969475E-03
  0.131249994      -4.35956102E-03
  0.131459996      -4.40352829E-03
  0.131669998      -4.44132369E-03
  0.131880000      -4.47267527E-03
  0.132090002      -4.49731573E-03
  0.132300004      -4.51498060E-03
  0.132510006      -4.52540955E-03
  0.132719994      -4.52834787E-03
  0.132929996      -4.52354550E-03
  0.133139998      -4.51075891E-03
  0.133350000      -4.48975246E-03
  0.133560002      -4.46029613E-03
  0.133770004      -4.42216964E-03
  0.133980006      -4.37516114E-03
  0.134189993      -4.31906898E-03
  0.134399995      -4.25370131E-03
  0.134609997      -4.17887745E-03
  0.134819999      -4.09442931E-03
  0.135030001      -4.00020089E-03
  0.135240003      -3.89604899E-03
  0.135450006      -3.78184509E-03
  0.135659993      -3.65747535E-03
  0.135869995      -3.52284056E-03
  0.136079997      -3.37785785E-03
  0.136289999      -3.22246109E-03
  0.136500001      -3.05660139E-03
  0.136710003      -2.88024731E-03
  0.136920005      -2.69338582E-03
  0.137130007      -2.49602296E-03
  0.137339994      -2.28818436E-03
  0.137549996      -2.06991495E-03
  0.137759998      -1.84128084E-03
  0.137970001      -1.60236796E-03
  0.138180003      -1.35328388E-03
  0.138390005      -1.09415734E-03
  0.138600007      -8.25138588E-04
  0.138809994      -5.46399911E-04
  0.139019996      -2.58135697E-04
  0.139229998       3.94376075E-05
  0.139440000       3.46081186E-04
  0.139650002       6.61533792E-04
  0.139860004       9.85511811E-04
  0.140070006       1.31770945E-03
  0.140279993       1.65779889E-03
  0.140489995       2.00542994E-03
  0.140699998       2.36023054E-03
  0.140910000       2.72180699E-03
  0.141120002       3.08974436E-03
  0.141330004       3.46360682E-03
  0.141540006       3.84293683E-03
  0.141749993       4.22725780E-03
  0.141959995       4.61607333E-03
  0.142169997       5.00886748E-03
  0.142379999       5.40510612E-03
  0.142590001       5.80423605E-03
  0.142800003       6.20568683E-03
  0.143010005       6.60887174E-03
  0.143220007       7.01318821E-03
  0.143429995       7.41801644E-03
  0.143639997       7.82272499E-03
  0.143849999       8.22666753E-03
  0.144060001       8.62918328E-03
  0.144270003       9.02960263E-03
  0.144480005       9.42724105E-03
  0.144690007       9.82140936E-03
  0.144899994       1.02114026E-02
  0.145109996       1.05965137E-02
  0.145319998       1.09760258E-02
  0.145530000       1.13492152E-02
  0.145740002       1.17153553E-02
  0.145950004       1.20737152E-02
  0.146160007       1.24235610E-02
  0.146369994       1.27641587E-02
  0.146579996       1.30947726E-02
  0.146789998       1.34146689E-02
  0.147000000       1.37231164E-02
  0.147210002       1.40193859E-02
  0.147420004       1.43027557E-02
  0.147630006       1.45725068E-02
  0.147839993       1.48279313E-02
  0.148049995       1.50683271E-02
  0.148259997       1.52930049E-02
  0.148469999       1.55012850E-02
  0.148680001       1.56925004E-02
  0.148890004       1.58660021E-02
  0.149100006       1.60211530E-02
  0.149309993       1.61573328E-02
  0.149519995       1.62739437E-02
  0.149729997       1.63704026E-02
  0.149939999       1.64461546E-02
  0.150150001       1.65006593E-02
  0.150360003       1.65334065E-02
  0.150570005       1.65439118E-02
  0.150780007       1.65317133E-02
  0.150989994       1.64963808E-02
  0.151199996       1.64375156E-02
  0.151409999       1.63547453E-02
  0.151620001       1.62477307E-02
  0.151830003       1.61161721E-02
  0.152040005       1.59597956E-02
  0.152250007       1.57783683E-02
  0.152459994       1.55716976E-02
  0.152669996       1.53396223E-02
  0.152879998       1.50820240E-02
  0.153090000       1.47988237E-02
  0.153300002       1.44899851E-02
  0.153510004       1.41555136E-02
  0.153720006       1.37954578E-02
  0.153929994       1.34099070E-02
  0.154139996       1.29989972E-02
  0.154349998       1.25629110E-02
  0.154560000       1.21018710E-02
  0.154770002       1.16161490E-02
  0.154980004       1.11060627E-02
  0.155190006       1.05719734E-02
  0.155399993       1.00142919E-02
  0.155609995       9.43347253E-03
  0.155819997       8.83001462E-03
  0.156029999       8.20446573E-03
  0.156240001       7.55741680E-03
  0.156450003       6.88950485E-03
  0.156660005       6.20140973E-03
  0.156869993       5.49385650E-03
  0.157079995       4.76761023E-03
  0.157289997       4.02348069E-03
  0.157499999       3.26231564E-03
  0.157710001       2.48500239E-03
  0.157920003       1.69246749E-03
  0.158130005       8.85673857E-04
  0.158340007       6.56187258E-05
  0.158549994      -7.66666199E-04
  0.158759996      -1.61011668E-03
  0.158969998      -2.46363855E-03
  0.159180000      -3.32611147E-03
  0.159390002      -4.19638678E-03
  0.159600005      -5.07329218E-03
  0.159810007      -5.95563417E-03
  0.160019994      -6.84219832E-03
  0.160229996      -7.73175433E-03
  0.160439998      -8.62305518E-03
  0.160650000      -9.51484218E-03
  0.160860002      -1.04058450E-02
  0.161070004      -1.12947850E-02
  0.161280006      -1.21803805E-02
  0.161489993      -1.30613446E-02
  0.161699995      -1.39363920E-02
  0.161909997      -1.48042375E-02
  0.162120000      -1.56636015E-02
  0.162330002      -1.65132079E-02
  0.162540004      -1.73517987E-02
  0.162750006      -1.81781203E-02
  0.162959993      -1.89909413E-02
  0.163169995      -1.97890364E-02
  0.163379997      -2.05712095E-02
  0.163589999      -2.13362798E-02
  0.163800001      -2.20830943E-02
  0.164010003      -2.28105206E-02
  0.164220005      -2.35174578E-02
  0.164430007      -2.42028385E-02
  0.164639995      -2.48656217E-02
  0.164849997      -2.55048033E-02
  0.165059999      -2.61194129E-02
  0.165270001      -2.67085209E-02
  0.165480003      -2.72712298E-02
  0.165690005      -2.78066881E-02
  0.165900007      -2.83140857E-02
  0.166109994      -2.87926495E-02
  0.166319996      -2.92416550E-02
  0.166529998      -2.96604224E-02
  0.166740000      -3.00483182E-02
  0.166950002      -3.04047558E-02
  0.167160004      -3.07291970E-02
  0.167370006      -3.10211424E-02
  0.167579994      -3.12801525E-02
  0.167789996      -3.15058306E-02
  0.167999998      -3.16978320E-02
  0.168210000      -3.18558663E-02
  0.168420002      -3.19796763E-02
  0.168630004      -3.20690647E-02
  0.168840006      -3.21238823E-02
  0.169049993      -3.21440324E-02
  0.169259995      -3.21294591E-02
  0.169469997      -3.20801623E-02
  0.169679999      -3.19961794E-02
  0.169890001      -3.18776034E-02
  0.170100003      -3.17245647E-02
  0.170310006      -3.15372460E-02
  0.170519993      -3.13158706E-02
  0.170729995      -3.10607105E-02
  0.170939997      -3.07720713E-02
  0.171149999      -3.04503050E-02
  0.171360001      -3.00958026E-02
  0.171570003      -2.97089890E-02
  0.171780005      -2.92903390E-02
  0.171990007      -2.88403556E-02
  0.172199994      -2.83595864E-02
  0.172409996      -2.78486013E-02
  0.172619998      -2.73080058E-02
  0.172830001      -2.67384425E-02
  0.173040003      -2.61405800E-02
  0.173250005      -2.55151112E-02
  0.173460007      -2.48627570E-02
  0.173669994      -2.41842680E-02
  0.173879996      -2.34804265E-02
  0.174089998      -2.27520261E-02
  0.174300000      -2.19998844E-02
  0.174510002      -2.12248359E-02
  0.174720004      -2.04277392E-02
  0.174930006      -1.96094662E-02
  0.175139993      -1.87709089E-02
  0.175349995      -1.79129709E-02
  0.175559998      -1.70365646E-02
  0.175770000      -1.61426216E-02
  0.175980002      -1.52320853E-02
  0.176190004      -1.43059017E-02
  0.176400006      -1.33650275E-02
  0.176609993      -1.24104200E-02
  0.176819995      -1.14430478E-02
  0.177029997      -1.04638925E-02
  0.177239999      -9.47393011E-03
  0.177450001      -8.47413577E-03
  0.177660003      -7.46548129E-03
  0.177870005      -6.44894829E-03
  0.178080007      -5.42551698E-03
  0.178289995      -4.39616013E-03
  0.178499997      -3.36184818E-03
  0.178709999      -2.32354738E-03
  0.178920001      -1.28222152E-03
  0.179130003      -2.38831519E-04
  0.179340005       8.05667834E-04
  0.179550007       1.85032887E-03
  0.179759994       2.89421459E-03