   0.00000000       0.00000000    
   2.09999998E-04   0.00000000    
   4.19999997E-04   0.00000000    
   6.30000024E-04   0.00000000    
   8.39999993E-04   7.69659733E-21
   1.04999996E-03   7.78284868E-20
   1.26000005E-03   4.24001899E-19
   1.47000002E-03   1.66055050E-18
   1.67999999E-03   5.24835097E-18
   1.88999996E-03   1.42331926E-17
   2.09999993E-03   3.43740264E-17
   2.30999989E-03   7.57656942E-17
   2.52000010E-03   1.55056819E-16
   2.73000007E-03   2.98359865E-16
   2.94000003E-03   5.44940341E-16
   3.15000000E-03   9.51738925E-16
   3.35999997E-03   1.59873276E-15
   3.56999994E-03   2.59514738E-15
   3.77999991E-03   4.08641770E-15
   3.99000011E-03   6.26184099E-15
   4.19999985E-03   9.36256687E-15
   4.41000005E-03   1.36897617E-14
   4.61999979E-03   1.96125685E-14
   4.82999999E-03   2.75753982E-14
   5.04000019E-03   3.81041702E-14
   5.24999993E-03   5.18102610E-14
   5.46000013E-03   6.93918935E-14
   5.66999987E-03   9.16323224E-14
   5.88000007E-03   1.19394241E-13
   6.08999981E-03   1.53608016E-13
   6.30000001E-03   1.95255433E-13
   6.51000021E-03   2.45343134E-13
   6.71999995E-03   3.04869574E-13
   6.93000015E-03   3.74787712E-13
   7.13999989E-03   4.55946316E-13
   7.35000009E-03   5.49025886E-13
   7.55999982E-03   6.54473058E-13
   7.77000003E-03   7.72403571E-13
   7.98000023E-03   9.02506694E-13
   8.19000043E-03   1.04394336E-12
   8.39999970E-03   1.19521439E-12
   8.60999990E-03   1.35402410E-12
   8.82000010E-03   1.51713819E-12
   9.03000031E-03   1.68024438E-12
   9.23999958E-03   1.83779489E-12
   9.44999978E-03   1.98282363E-12
   9.65999998E-03   2.10680215E-12
   9.87000018E-03   2.19947910E-12
   1.00800004E-02   2.24870578E-12
   1.02899997E-02   2.24033639E-12
   1.04999999E-02   2.15811570E-12
   1.07100001E-02   1.98355980E-12
   1.09200003E-02   1.69591056E-12
   1.11300005E-02   1.27214569E-12
   1.13399997E-02   6.86951039E-13
   1.15499999E-02  -8.72184473E-14
   1.17600001E-02  -1.07989572E-12
   1.19700003E-02  -2.32253561E-12
   1.21799996E-02  -3.84812364E-12
   1.23899998E-02  -5.69071483E-12
   1.26000000E-02  -7.88516995E-12
   1.28100002E-02  -1.04664168E-11
   1.30200004E-02  -1.34689265E-11
   1.32299997E-02  -1.69257941E-11
   1.34399999E-02  -2.08678803E-11
   1.36500001E-02  -2.53229035E-11
   1.38600003E-02  -3.03142615E-11
   1.40699996E-02  -3.58598116E-11
   1.42799998E-02  -4.19704445E-11
   1.44900000E-02  -4.86490188E-11
   1.47000002E-02  -5.58885785E-11
   1.49100004E-02  -6.36708811E-11
   1.51199996E-02  -7.19648022E-11
   1.53299998E-02  -8.07247463E-11
   1.55400001E-02  -8.98894084E-11
   1.57500003E-02  -9.93794422E-11
   1.59600005E-02  -1.09096371E-10
   1.61700007E-02  -1.18921192E-10
   1.63800009E-02  -1.28713012E-10
   1.65899992E-02  -1.38307865E-10
   1.67999994E-02  -1.47517928E-10
   1.70099996E-02  -1.56130775E-10
   1.72199998E-02  -1.63908914E-10
   1.74300000E-02  -1.70590098E-10
   1.76400002E-02  -1.75887346E-10
   1.78500004E-02  -1.79490131E-10
   1.80600006E-02  -1.81065621E-10
   1.82700008E-02  -1.80260473E-10
   1.84799992E-02  -1.76703402E-10
   1.86899994E-02  -1.70008355E-10
   1.88999996E-02  -1.59777760E-10
   1.91099998E-02  -1.45606902E-10
   1.93200000E-02  -1.27089339E-10
   1.95300002E-02  -1.03822402E-10
   1.97400004E-02  -7.54135435E-11
   1.99500006E-02  -4.14875322E-11
   2.01600008E-02  -1.69352607E-12
   2.03699991E-02   4.42860609E-11
   2.05799993E-02   9.67264879E-11
   2.07899995E-02   1.55851929E-10
   2.09999997E-02   2.21825641E-10
   2.12099999E-02   2.94740010E-10
   2.14200001E-02   3.74605319E-10
   2.16300003E-02   4.61340660E-10
   2.18400005E-02   5.54763180E-10
   2.20500007E-02   6.54577226E-10
   2.22600009E-02   7.60366325E-10
   2.24699993E-02   8.71582473E-10
   2.26799995E-02   9.87537496E-10
   2.28899997E-02   1.10739551E-09
   2.30999999E-02   1.23016697E-09
   2.33100001E-02   1.35470390E-09
   2.35200003E-02   1.47969348E-09
   2.37300005E-02   1.60366032E-09
   2.39400007E-02   1.72496251E-09
   2.41500009E-02   1.84179683E-09
   2.43599992E-02   1.95220129E-09
   2.45699994E-02   2.05405937E-09
   2.47799996E-02   2.14511564E-09
   2.49899998E-02   2.22298757E-09
   2.52000000E-02   2.28517383E-09
   2.54100002E-02   2.32907404E-09
   2.56200004E-02   2.35202102E-09
   2.58300006E-02   2.35129316E-09
   2.60400008E-02   2.32414465E-09
   2.62499992E-02   2.26783903E-09
   2.64599994E-02   2.17967644E-09
   2.66699996E-02   2.05703898E-09
   2.68799998E-02   1.89742133E-09
   2.70900000E-02   1.69847270E-09
   2.73000002E-02   1.45804868E-09
   2.75100004E-02   1.17424304E-09
   2.77200006E-02   8.45441162E-10
   2.79300008E-02   4.70370187E-10
   2.81399991E-02   4.81406338E-11
   2.83499993E-02  -4.21704283E-10
   2.85599995E-02  -9.39146205E-10
   2.87699997E-02  -1.50364077E-09
   2.89799999E-02  -2.11407225E-09
   2.91900001E-02  -2.76871548E-09
   2.94000003E-02  -3.46520568E-09
   2.96100006E-02  -4.20049373E-09
   2.98200008E-02  -4.97082109E-09
   3.00299991E-02  -5.77170134E-09
   3.02399993E-02  -6.59789912E-09
   3.04499995E-02  -7.44341921E-09
   3.06599997E-02  -8.30150615E-09
   3.08699999E-02  -9.16464593E-09
   3.10800001E-02  -1.00245892E-08
   3.12899984E-02  -1.08723670E-08
   3.15000005E-02  -1.16983259E-08
   3.17099988E-02  -1.24921744E-08
   3.19200009E-02  -1.32430289E-08
   3.21299993E-02  -1.39394887E-08
   3.23400013E-02  -1.45697090E-08
   3.25499997E-02  -1.51214792E-08
   3.27600017E-02  -1.55823230E-08
   3.29700001E-02  -1.59396052E-08
   3.31799984E-02  -1.61806462E-08
   3.33900005E-02  -1.62928480E-08
   3.35999988E-02  -1.62638276E-08
   3.38100009E-02  -1.60815805E-08
   3.40199992E-02  -1.57345905E-08
   3.42300013E-02  -1.52120041E-08
   3.44399996E-02  -1.45037928E-08
   3.46500017E-02  -1.36009168E-08
   3.48600000E-02  -1.24954571E-08
   3.50699984E-02  -1.11808083E-08
   3.52800004E-02  -9.65185798E-09
   3.54899988E-02  -7.90511123E-09
   3.57000008E-02  -5.93884053E-09
   3.59099992E-02  -3.75324793E-09
   3.61200012E-02  -1.35061018E-09
   3.63299996E-02   1.26464816E-09
   3.65400016E-02   4.08577350E-09
   3.67500000E-02   7.10357817E-09
   3.69599983E-02   1.03064632E-08
   3.71700004E-02   1.36802933E-08
   3.73799987E-02   1.72083059E-08
   3.75900008E-02   2.08711768E-08
   3.77999991E-02   2.46470293E-08
   3.80100012E-02   2.85113977E-08
   3.82199995E-02   3.24373026E-08
   3.84300016E-02   3.63954520E-08
   3.86399999E-02   4.03542444E-08
   3.88499983E-02   4.42798225E-08
   3.90600003E-02   4.81363713E-08
   3.92699987E-02   5.18863956E-08
   3.94800007E-02   5.54907835E-08
   3.96899991E-02   5.89091513E-08
   3.99000011E-02   6.21001135E-08
   4.01099995E-02   6.50215810E-08
   4.03200015E-02   6.76311060E-08
   4.05299999E-02   6.98862266E-08
   4.07399982E-02   7.17448501E-08
   4.09500003E-02   7.31656584E-08
   4.11599986E-02   7.41084918E-08
   4.13700007E-02   7.45347748E-08
   4.15799990E-02   7.44079927E-08
   4.17900011E-02   7.36940677E-08
   4.19999994E-02   7.23617859E-08
   4.22100015E-02   7.03832441E-08
   4.24199998E-02   6.77343124E-08
   4.26299982E-02   6.43949818E-08
   4.28400002E-02   6.03497199E-08
   4.30499986E-02   5.55879680E-08
   4.32600006E-02   5.01044184E-08
   4.34699990E-02   4.38993446E-08
   4.36800011E-02   3.69788324E-08
   4.38899994E-02   2.93550872E-08
   4.41000015E-02   2.10465902E-08
   4.43099998E-02   1.20782824E-08
   4.45200019E-02   2.48169463E-09
   4.47300002E-02  -7.70504904E-09
   4.49399985E-02  -1.84372180E-08
   4.51500006E-02  -2.96635054E-08
   4.53599989E-02  -4.13261922E-08
   4.55700010E-02  -5.33612976E-08
   4.57799993E-02  -6.56988703E-08
   4.59900014E-02  -7.82631915E-08
   4.61999997E-02  -9.09732165E-08
   4.64100018E-02  -1.03743083E-07
   4.66200002E-02  -1.16482433E-07
   4.68299985E-02  -1.29096989E-07
   4.70400006E-02  -1.41489281E-07
   4.72499989E-02  -1.53559228E-07
   4.74600010E-02  -1.65204696E-07
   4.76699993E-02  -1.76322374E-07
   4.78800014E-02  -1.86808634E-07
   4.80899997E-02  -1.96560322E-07
   4.83000018E-02  -2.05475487E-07
   4.85100001E-02  -2.13454157E-07
   4.87199984E-02  -2.20399698E-07
   4.89300005E-02  -2.26219086E-07
   4.91399989E-02  -2.30823886E-07
   4.93500009E-02  -2.34131733E-07
   4.95599993E-02  -2.36066384E-07
   4.97700013E-02  -2.36558819E-07
   4.99799997E-02  -2.35548299E-07
   5.01900017E-02  -2.32982742E-07
   5.04000001E-02  -2.28819459E-07
   5.06099984E-02  -2.23025978E-07
   5.08200005E-02  -2.15580613E-07
   5.10299988E-02  -2.06472748E-07
   5.12400009E-02  -1.95703379E-07
   5.14499992E-02  -1.83285422E-07
   5.16600013E-02  -1.69243847E-07
   5.18699996E-02  -1.53615900E-07
   5.20800017E-02  -1.36451291E-07
   5.22900000E-02  -1.17811808E-07
   5.24999984E-02  -9.77713412E-08
   5.27100004E-02  -7.64155104E-08
   5.29199988E-02  -5.38413616E-08
   5.31300008E-02  -3.01571177E-08
   5.33399992E-02  -5.48112800E-09
   5.35500012E-02   2.00588310E-08
   5.37599996E-02   4.63261323E-08
   5.39700016E-02   7.31760608E-08
   5.41800000E-02   1.00456852E-07
   5.43899983E-02   1.28010754E-07
   5.46000004E-02   1.55675409E-07
   5.48099987E-02   1.83284868E-07
   5.50200008E-02   2.10670720E-07
   5.52299991E-02   2.37663443E-07
   5.54400012E-02   2.64093643E-07
   5.56499995E-02   2.89793803E-07
   5.58600016E-02   3.14599191E-07
   5.60699999E-02   3.38348940E-07
   5.62799983E-02   3.60887839E-07
   5.64900003E-02   3.82067412E-07
   5.66999987E-02   4.01747002E-07
   5.69100007E-02   4.19795299E-07
   5.71199991E-02   4.36091113E-07
   5.73300011E-02   4.50524624E-07
   5.75399995E-02   4.62998230E-07
   5.77500015E-02   4.73427264E-07
   5.79599999E-02   4.81740699E-07
   5.81699982E-02   4.87881778E-07
   5.83800003E-02   4.91808237E-07
   5.85899986E-02   4.93493076E-07
   5.88000007E-02   4.92924130E-07
   5.90099990E-02   4.90104583E-07
   5.92200011E-02   4.85052738E-07
   5.94299994E-02   4.77801507E-07
   5.96400015E-02   4.68398298E-07
   5.98499998E-02   4.56903479E-07
   6.00599982E-02   4.43390348E-07
   6.02700002E-02   4.27944798E-07
   6.04799986E-02   4.10663461E-07
   6.06900007E-02   3.91653344E-07
   6.08999990E-02   3.71029614E-07
   6.11100011E-02   3.48914341E-07
   6.13199994E-02   3.25436361E-07
   6.15300015E-02   3.00728573E-07
   6.17399998E-02   2.74927032E-07
   6.19499981E-02   2.48168789E-07
   6.21600002E-02   2.20589484E-07
   6.23699985E-02   1.92323895E-07
   6.25799969E-02   1.63503458E-07
   6.27899989E-02   1.34254137E-07
   6.30000010E-02   1.04695772E-07
   6.32100031E-02   7.49398552E-08
   6.34199977E-02   4.50892337E-08
   6.36299998E-02   1.52360311E-08
   6.38400018E-02  -1.45386547E-08
   6.40499964E-02  -4.41670487E-08
   6.42599985E-02  -7.35932062E-08
   6.44700006E-02  -1.02774244E-07
   6.46800026E-02  -1.31682910E-07
   6.48899972E-02  -1.60303784E-07
   6.50999993E-02  -1.88636733E-07
   6.53100014E-02  -2.16693905E-07
   6.55200034E-02  -2.44500569E-07
   6.57299981E-02  -2.72095832E-07
   6.59400001E-02  -2.99528722E-07
   6.61500022E-02  -3.26857503E-07
   6.63599968E-02  -3.54148085E-07
   6.65699989E-02  -3.81475559E-07
   6.67800009E-02  -4.08919902E-07
   6.69900030E-02  -4.36563226E-07
   6.71999976E-02  -4.64488210E-07
   6.74099997E-02  -4.92775257E-07
   6.76200017E-02  -5.21503978E-07
   6.78299963E-02  -5.50746734E-07
   6.80399984E-02  -5.80565029E-07
   6.82500005E-02  -6.11011956E-07
   6.84600025E-02  -6.42126224E-07
   6.86699972E-02  -6.73929435E-07
   6.88799992E-02  -7.06425624E-07
   6.90900013E-02  -7.39598477E-07
   6.93000033E-02  -7.73408544E-07
   6.95099980E-02  -8.07792674E-07
   6.97200000E-02  -8.42661848E-07
   6.99300021E-02  -8.77898685E-07
   7.01399967E-02  -9.13357155E-07
   7.03499988E-02  -9.48862180E-07
   7.05600008E-02  -9.84209464E-07
   7.07700029E-02  -1.01916521E-06
   7.09799975E-02  -1.05346567E-06
   7.11899996E-02  -1.08681854E-06
   7.14000016E-02  -1.11890472E-06
   7.16100037E-02  -1.14937995E-06
   7.18199983E-02  -1.17787590E-06
   7.20300004E-02  -1.20400307E-06
   7.22400025E-02  -1.22735412E-06
   7.24499971E-02  -1.24750738E-06
   7.26599991E-02  -1.26403097E-06
   7.28700012E-02  -1.27648593E-06
   7.30800033E-02  -1.28443151E-06
   7.32899979E-02  -1.28743113E-06
   7.34999999E-02  -1.28505530E-06
   7.37100020E-02  -1.27688747E-06
   7.39199966E-02  -1.26253178E-06
   7.41299987E-02  -1.24161386E-06
   7.43400007E-02  -1.21379037E-06
   7.45500028E-02  -1.17875561E-06
   7.47599974E-02  -1.13624208E-06
   7.49699995E-02  -1.08603240E-06
   7.51800016E-02  -1.02795889E-06
   7.53900036E-02  -9.61910132E-07
   7.55999982E-02  -8.87841452E-07
   7.58100003E-02  -8.05772459E-07
   7.60200024E-02  -7.15791373E-07
   7.62299970E-02  -6.18057186E-07
   7.64399990E-02  -5.12802899E-07
   7.66500011E-02  -4.00340127E-07
   7.68600032E-02  -2.81062597E-07
   7.70699978E-02  -1.55437164E-07
   7.72799999E-02  -2.40036098E-08
   7.74900019E-02   1.12617442E-07
   7.76999965E-02   2.53732139E-07
   7.79099986E-02   3.98581619E-07
   7.81200007E-02   5.46335912E-07
   7.83300027E-02   6.96110419E-07
   7.85399973E-02   8.46974103E-07
   7.87499994E-02   9.97940560E-07
   7.89600015E-02   1.14799207E-06
   7.91700035E-02   1.29607770E-06
   7.93799981E-02   1.44113187E-06
   7.95900002E-02   1.58209048E-06
   7.98000023E-02   1.71788543E-06
   8.00099969E-02   1.84746398E-06
   8.02199990E-02   1.96980659E-06
   8.04300010E-02   2.08393271E-06
   8.06400031E-02   2.18891705E-06
   8.08499977E-02   2.28389968E-06
   8.10599998E-02   2.36810388E-06
   8.12700018E-02   2.44084754E-06
   8.14799964E-02   2.50155153E-06
   8.16899985E-02   2.54975453E-06
   8.19000006E-02   2.58512500E-06
   8.21100026E-02   2.60747197E-06
   8.23199973E-02   2.61675223E-06
   8.25299993E-02   2.61308401E-06
   8.27400014E-02   2.59674516E-06
   8.29500034E-02   2.56818453E-06
   8.31599981E-02   2.52802920E-06
   8.33700001E-02   2.47707612E-06
   8.35800022E-02   2.41629937E-06
   8.37899968E-02   2.34685058E-06
   8.39999989E-02   2.27005148E-06
   8.42100009E-02   2.18739115E-06
   8.44200030E-02   2.10051553E-06
   8.46299976E-02   2.01121566E-06
   8.48399997E-02   1.92141647E-06
   8.50500017E-02   1.83316752E-06
   8.52599964E-02   1.74861952E-06
   8.54699984E-02   1.67000746E-06
   8.56800005E-02   1.59963349E-06
   8.58900025E-02   1.53983967E-06
   8.60999972E-02   1.49298148E-06
   8.63099992E-02   1.46140360E-06
   8.65200013E-02   1.44741398E-06
   8.67300034E-02   1.45325578E-06
   8.69399980E-02   1.48107131E-06
   8.71500000E-02   1.53286987E-06
   8.73600021E-02   1.61050173E-06
   8.75699967E-02   1.71562510E-06
   8.77799988E-02   1.84967178E-06
   8.79900008E-02   2.01381749E-06
   8.82000029E-02   2.20895072E-06
   8.84099975E-02   2.43563522E-06
   8.86199996E-02   2.69409725E-06
   8.88300017E-02   2.98419104E-06
   8.90400037E-02   3.30536477E-06
   8.92499983E-02   3.65664846E-06
   8.94600004E-02   4.03662989E-06
   8.96700025E-02   4.44344687E-06
   8.98799971E-02   4.87476291E-06
   9.00899991E-02   5.32776039E-06
   9.03000012E-02   5.79914877E-06
   9.05100033E-02   6.28512817E-06
   9.07199979E-02   6.78142214E-06
   9.09299999E-02   7.28329178E-06
   9.11400020E-02   7.78551566E-06
   9.13499966E-02   8.28243355E-06
   9.15599987E-02   8.76796184E-06
   9.17700008E-02   9.23561129E-06
   9.19800028E-02   9.67855340E-06
   9.21899974E-02   1.00896295E-05
   9.23999995E-02   1.04613864E-05
   9.26100016E-02   1.07861260E-05
   9.28200036E-02   1.10559668E-05
   9.30299982E-02   1.12628977E-05
   9.32400003E-02   1.13988508E-05
   9.34500024E-02   1.14557606E-05
   9.36599970E-02   1.14256190E-05
   9.38699991E-02   1.13005381E-05
   9.40800011E-02   1.10728388E-05
   9.42900032E-02   1.07351316E-05
   9.44999978E-02   1.02803488E-05
   9.47099999E-02   9.70185829E-06
   9.49200019E-02   8.99357292E-06
   9.51299965E-02   8.14996747E-06
   9.53399986E-02   7.16617524E-06
   9.55500007E-02   6.03807985E-06
   9.57600027E-02   4.76233299E-06
   9.59699973E-02   3.33647222E-06
   9.61799994E-02   1.75899925E-06
   9.63900015E-02   2.93881666E-08
   9.66000035E-02  -1.85183387E-06
   9.68099982E-02  -3.88303215E-06
   9.70200002E-02  -6.06144158E-06
   9.72300023E-02  -8.38310280E-06
   9.74399969E-02  -1.08428594E-05
   9.76499990E-02  -1.34343190E-05
   9.78600010E-02  -1.61498283E-05
   9.80700031E-02  -1.89804887E-05
   9.82799977E-02  -2.19161684E-05
   9.84899998E-02  -2.49455024E-05
   9.87000018E-02  -2.80559034E-05
   9.89099964E-02  -3.12336160E-05
   9.91199985E-02  -3.44637556E-05
   9.93300006E-02  -3.77303440E-05
   9.95400026E-02  -4.10163957E-05
   9.97499973E-02  -4.43039389E-05
   9.99599993E-02  -4.75741253E-05
  0.100170001      -5.08073244E-05
  0.100380003      -5.39832217E-05
  0.100589998      -5.70808879E-05
  0.100800000      -6.00789026E-05
  0.101010002      -6.29554852E-05
  0.101219997      -6.56886186E-05
  0.101429999      -6.82561440E-05
  0.101640001      -7.06358987E-05
  0.101850003      -7.28058731E-05
  0.102059998      -7.47443191E-05
  0.102270000      -7.64298893E-05
  0.102480002      -7.78418107E-05
  0.102689996      -7.89599726E-05
  0.102899998      -7.97650937E-05
  0.103110000      -8.02388167E-05
  0.103320003      -8.03638904E-05
  0.103529997      -8.01242422E-05
  0.103739999      -7.95051383E-05
  0.103950001      -7.84932781E-05
  0.104160003      -7.70768893E-05
  0.104369998      -7.52458436E-05
  0.104580000      -7.29917519E-05
  0.104790002      -7.03080368E-05
  0.104999997      -6.71899907E-05
  0.105209999      -6.36347977E-05
  0.105420001      -5.96416758E-05
  0.105630003      -5.52118618E-05
  0.105839998      -5.03486408E-05
  0.106050000      -4.50573316E-05
  0.106260002      -3.93453483E-05
  0.106470004      -3.32221425E-05
  0.106679998      -2.66992174E-05
  0.106890000      -1.97900372E-05
  0.107100002      -1.25099905E-05
  0.107309997      -4.87642410E-06
  0.107519999       3.09147845E-06
  0.107730001       1.13728138E-05
  0.107940003       1.99449896E-05
  0.108149998       2.87838538E-05
  0.108360000       3.78637887E-05
  0.108570002       4.71577659E-05
  0.108779997       5.66375529E-05
  0.108989999       6.62737220E-05
  0.109200001       7.60358525E-05
  0.109410003       8.58926505E-05
  0.109619997       9.58120363E-05
  0.109830000       1.05761326E-04
  0.110040002       1.15707218E-04
  0.110250004       1.25616105E-04
  0.110459998       1.35454145E-04
  0.110670000       1.45187267E-04
  0.110880002       1.54781403E-04
  0.111089997       1.64202560E-04
  0.111299999       1.73416993E-04
  0.111510001       1.82391130E-04
  0.111720003       1.91091764E-04
  0.111929998       1.99486312E-04
  0.112140000       2.07542587E-04
  0.112350002       2.15229040E-04
  0.112559997       2.22514791E-04
  0.112769999       2.29369645E-04
  0.112980001       2.35764179E-04
  0.113190003       2.41669724E-04
  0.113399997       2.47058284E-04
  0.113609999       2.51902879E-04
  0.113820001       2.56177242E-04
  0.114030004       2.59856024E-04
  0.114239998       2.62914662E-04
  0.114450000       2.65329349E-04
  0.114660002       2.67077005E-04
  0.114869997       2.68135424E-04
  0.115079999       2.68483214E-04
  0.115290001       2.68099539E-04
  0.115500003       2.66964315E-04
  0.115709998       2.65058130E-04
  0.115920000       2.62362213E-04
  0.116130002       2.58858403E-04
  0.116339996       2.54529092E-04
  0.116549999       2.49357341E-04
  0.116760001       2.43326664E-04
  0.116970003       2.36421125E-04
  0.117179997       2.28625358E-04
  0.117389999       2.19924666E-04
  0.117600001       2.10304832E-04
  0.117810003       1.99752249E-04
  0.118019998       1.88253965E-04
  0.118230000       1.75797846E-04
  0.118440002       1.62372380E-04
  0.118649997       1.47966915E-04
  0.118859999       1.32571760E-04
  0.119070001       1.16178242E-04
  0.119280003       9.87787716E-05
  0.119489998       8.03670046E-05
  0.119700000       6.09379495E-05
  0.119910002       4.04882157E-05
  0.120119996       1.90159990E-05
  0.120329998      -3.47871469E-06
  0.120540000      -2.69939501E-05
  0.120750003      -5.15255451E-05
  0.120959997      -7.70670886E-05
  0.121169999      -1.03609695E-04
  0.121380001      -1.31141758E-04
  0.121590003      -1.59648858E-04
  0.121799998      -1.89113431E-04
  0.122010000      -2.19514797E-04
  0.122220002      -2.50828918E-04
  0.122429997      -2.83028174E-04
  0.122639999      -3.16081278E-04
  0.122850001      -3.49953159E-04
  0.123060003      -3.84604646E-04
  0.123269998      -4.19992517E-04
  0.123480000      -4.56069421E-04
  0.123690002      -4.92783671E-04
  0.123899996      -5.30079298E-04
  0.124109998      -5.67895884E-04
  0.124320000      -6.06168469E-04
  0.124530002      -6.44827902E-04
  0.124739997      -6.83800492E-04
  0.124949999      -7.23008357E-04
  0.125159994      -7.62369076E-04
  0.125369996      -8.01796094E-04
  0.125579998      -8.41199013E-04
  0.125790000      -8.80483421E-04
  0.126000002      -9.19551007E-04
  0.126210004      -9.58299963E-04
  0.126420006      -9.96625284E-04
  0.126629993      -1.03441882E-03
  0.126839995      -1.07156963E-03
  0.127049997      -1.10796443E-03
  0.127260000      -1.14348740E-03
  0.127470002      -1.17802119E-03
  0.127680004      -1.21144694E-03
  0.127890006      -1.24364451E-03
  0.128099993      -1.27449352E-03
  0.128309995      -1.30387256E-03
  0.128519997      -1.33166125E-03
  0.128729999      -1.35773898E-03
  0.128940001      -1.38198643E-03
  0.129150003      -1.40428555E-03
  0.129360005      -1.42452039E-03
  0.129570007      -1.44257711E-03
  0.129779994      -1.45834428E-03
  0.129989997      -1.47171377E-03
  0.130199999      -1.48258125E-03
  0.130410001      -1.49084604E-03
  0.130620003      -1.49641209E-03
  0.130830005      -1.49918743E-03
  0.131040007      -1.49908580E-03
  0.131249994      -1.49602629E-03
  0.131459996      -1.48993335E-03
  0.131669998      -1.48073770E-03
  0.131880000      -1.46837649E-03
  0.132090002      -1.45279337E-03
  0.132300004      -1.43393816E-03
  0.132510006      -1.41176837E-03
  0.132719994      -1.38624862E-03
  0.132929996      -1.35735015E-03
  0.133139998      -1.32505200E-03
  0.133350000      -1.28934055E-03
  0.133560002      -1.25020999E-03
  0.133770004      -1.20766147E-03
  0.133980006      -1.16170372E-03
  0.134189993      -1.11235306E-03
  0.134399995      -1.05963321E-03
  0.134609997      -1.00357516E-03
  0.134819999      -9.44217318E-04
  0.135030001      -8.81604908E-04
  0.135240003      -8.15790205E-04
  0.135450006      -7.46831880E-04
  0.135659993      -6.74795534E-04
  0.135869995      -5.99752937E-04
  0.136079997      -5.21782087E-04
  0.136289999      -4.40966833E-04
  0.136500001      -3.57396581E-04
  0.136710003      -2.71166035E-04
  0.136920005      -1.82375094E-04
  0.137130007      -9.11287862E-05
  0.137339994       2.46364516E-06
  0.137549996       9.82882266E-05
  0.137759998       1.96226974E-04
  0.137970001       2.96158163E-04
  0.138180003       3.97956348E-04
  0.138390005       5.01492934E-04
  0.138600007       6.06635993E-04
  0.138809994       7.13250658E-04
  0.139019996       8.21199617E-04
  0.139229998       9.30342881E-04
  0.139440000       1.04053866E-03
  0.139650002       1.15164276E-03
  0.139860004       1.26350904E-03
  0.140070006       1.37598976E-03
  0.140279993       1.48893578E-03
  0.140489995       1.60219613E-03
  0.140699998       1.71561900E-03
  0.140910000       1.82905118E-03
  0.141120002       1.94233865E-03
  0.141330004       2.05532624E-03
  0.141540006       2.16785818E-03
  0.141749993       2.27977755E-03
  0.141959995       2.39092740E-03
  0.142169997       2.50115013E-03
  0.142379999       2.61028763E-03
  0.142590001       2.71818135E-03
  0.142800003       2.82467320E-03
  0.143010005       2.92960391E-03
  0.143220007       3.03281518E-03
  0.143429995       3.13414820E-03
  0.143639997       3.23344488E-03
  0.143849999       3.33054690E-03
  0.144060001       3.42529663E-03
  0.144270003       3.51753714E-03
  0.144480005       3.60711222E-03
  0.144690007       3.69386701E-03
  0.144899994       3.77764716E-03
  0.145109996       3.85829993E-03
  0.145319998       3.93567374E-03
  0.145530000       4.00961889E-03
  0.145740002       4.07998776E-03
  0.145950004       4.14663507E-03
  0.146160007       4.20941738E-03
  0.146369994       4.26819455E-03
  0.146579996       4.32282779E-03
  0.146789998       4.37318394E-03
  0.147000000       4.41913214E-03
  0.147210002       4.46054526E-03
  0.147420004       4.49729990E-03
  0.147630006       4.52927779E-03
  0.147839993       4.55636391E-03
  0.148049995       4.57844976E-03
  0.148259997       4.59543150E-03
  0.148469999       4.60720994E-03
  0.148680001       4.61369194E-03
  0.148890004       4.61479044E-03
  0.149100006       4.61042346E-03
  0.149309993       4.60051792E-03
  0.149519995       4.58500441E-03
  0.149729997       4.56382195E-03
  0.149939999       4.53691650E-03
  0.150150001       4.50424151E-03
  0.150360003       4.46575694E-03
  0.150570005       4.42143017E-03
  0.150780007       4.37123654E-03
  0.150989994       4.31515789E-03
  0.151199996       4.25318303E-03
  0.151409999       4.18531010E-03
  0.151620001       4.11154330E-03
  0.151830003       4.03189519E-03
  0.152040005       3.94638442E-03
  0.152250007       3.85503820E-03
  0.152459994       3.75788962E-03
  0.152669996       3.65497894E-03
  0.152879998       3.54635343E-03
  0.153090000       3.43206688E-03
  0.153300002       3.31217889E-03
  0.153510004       3.18675558E-03
  0.153720006       3.05586890E-03
  0.153929994       2.91959709E-03
  0.154139996       2.77802302E-03
  0.154349998       2.63123424E-03
  0.154560000       2.47932295E-03
  0.154770002       2.32238579E-03
  0.154980004       2.16052425E-03
  0.155190006       1.99384405E-03
  0.155399993       1.82245334E-03
  0.155609995       1.64646539E-03
  0.155819997       1.46599580E-03
  0.156029999       1.28116389E-03
  0.156240001       1.09209132E-03
  0.156450003       8.98901431E-04
  0.156660005       7.01721350E-04
  0.156869993       5.00681228E-04
  0.157079995       2.95913575E-04
  0.157289997       8.75517362E-05
  0.157499999      -1.24268438E-04
  0.157710001      -3.39407852E-04
  0.157920003      -5.57723455E-04
  0.158130005      -7.79068912E-04
  0.158340007      -1.00329740E-03
  0.158549994      -1.23025954E-03
  0.158759996      -1.45980180E-03
  0.158969998      -1.69176643E-03
  0.159180000      -1.92599371E-03
  0.159390002      -2.16231775E-03
  0.159600005      -2.40056845E-03
  0.159810007      -2.64057191E-03
  0.160019994      -2.88214791E-03
  0.160229996      -3.12510994E-03
  0.160439998      -3.36926756E-03
  0.160650000      -3.61442240E-03
  0.160860002      -3.86036537E-03
  0.161070004      -4.10688249E-03
  0.161280006      -4.35375096E-03
  0.161489993      -4.60074143E-03
  0.161699995      -4.84761223E-03
  0.161909997      -5.09411329E-03
  0.162120000      -5.33998385E-03
  0.162330002      -5.58495428E-03
  0.162540004      -5.82874147E-03
  0.162750006      -6.07105298E-03
  0.162959993      -6.31158333E-03
  0.163169995      -6.55001635E-03
  0.163379997      -6.78602327E-03
  0.163589999      -7.01926462E-03
  0.163800001      -7.24938745E-03
  0.164010003      -7.47602433E-03
  0.164220005      -7.69879762E-03
  0.164430007      -7.91731942E-03
  0.164639995      -8.13118927E-03
  0.164849997      -8.33999366E-03
  0.165059999      -8.54331255E-03
  0.165270001      -8.74071289E-03
  0.165480003      -8.93175229E-03
  0.165690005      -9.11597814E-03
  0.165900007      -9.29293036E-03
  0.166109994      -9.46214329E-03
  0.166319996      -9.62314568E-03
  0.166529998      -9.77545884E-03
  0.166740000      -9.91860125E-03
  0.166950002      -1.00520905E-02
  0.167160004      -1.01754423E-02
  0.167370006      -1.02881705E-02
  0.167579994      -1.03897899E-02
  0.167789996      -1.04798237E-02
  0.167999998      -1.05577968E-02
  0.168210000      -1.06232380E-02
  0.168420002      -1.06756892E-02
  0.168630004      -1.07147051E-02
  0.168840006      -1.07398489E-02
  0.169049993      -1.07507007E-02
  0.169259995      -1.07468562E-02
  0.169469997      -1.07279317E-02
  0.169679999      -1.06935622E-02
  0.169890001      -1.06434003E-02
  0.170100003      -1.05771255E-02
  0.170310006      -1.04944445E-02
  0.170519993      -1.03950966E-02
  0.170729995      -1.02788480E-02
  0.170939997      -1.01454947E-02
  0.171149999      -9.99486633E-03
  0.171360001      -9.82682779E-03
  0.171570003      -9.64128412E-03
  0.171780005      -9.43817385E-03
  0.171990007      -9.21747554E-03
  0.172199994      -8.97921249E-03
  0.172409996      -8.72345082E-03
  0.172619998      -8.45029578E-03
  0.172830001      -8.15989729E-03
  0.173040003      -7.85245001E-03
  0.173250005      -7.52819609E-03
  0.173460007      -7.18742050E-03
  0.173669994      -6.83045574E-03
  0.173879996      -6.45768875E-03
  0.174089998      -6.06954517E-03
  0.174300000      -5.66649204E-03
  0.174510002      -5.24904346E-03
  0.174720004      -4.81776567E-03
  0.174930006      -4.37326217E-03
  0.175139993      -3.91618209E-03
  0.175349995      -3.44722671E-03
  0.175559998      -2.96712876E-03
  0.175770000      -2.47666775E-03
  0.175980002      -1.97666138E-03
  0.176190004      -1.46796508E-03
  0.176400006      -9.51465627E-04
  0.176609993      -4.28081607E-04
  0.176819995       1.01236867E-04
  0.177029997       6.35510311E-04
  0.177239999       1.17372768E-03
  0.177450001       1.71485147E-03
  0.177660003       2.25782674E-03
  0.177870005       2.80158431E-03
  0.178080007       3.34503804E-03
  0.178289995       3.88708082E-03
  0.178499997       4.42659855E-03
  0.178709999       4.96247457E-03
  0.178920001       5.49357850E-03
  0.179130003       6.01878762E-03
  0.179340005       6.53696479E-03
  0.179550007       7.04697985E-03
  0.179759994       7.54772685E-03