   0.00000000       0.00000000    
   2.09999998E-04   0.00000000    
   4.19999997E-04   0.00000000    
   6.30000024E-04   0.00000000    
   8.39999993E-04   7.65350568E-19
   1.04999996E-03   7.78175538E-18
   1.26000005E-03   4.26452336E-17
   1.47000002E-03   1.67916142E-16
   1.67999999E-03   5.32995588E-16
   1.88999996E-03   1.44963844E-15
   2.09999993E-03   3.50607604E-15
   2.30999989E-03   7.72817869E-15
   2.52000010E-03   1.57945048E-14
   2.73000007E-03   3.03092173E-14
   2.94000003E-03   5.51327342E-14
   3.15000000E-03   9.57646234E-14
   3.35999997E-03   1.59766474E-13
   3.56999994E-03   2.57204062E-13
   3.77999991E-03   4.01080021E-13
   3.99000011E-03   6.07717923E-13
   4.19999985E-03   8.97047790E-13
   4.41000005E-03   1.29273512E-12
   4.61999979E-03   1.82208393E-12
   4.82999999E-03   2.51563050E-12
   5.04000019E-03   3.40635094E-12
   5.24999993E-03   4.52839068E-12
   5.46000013E-03   5.91521276E-12
   5.66999987E-03   7.59708095E-12
   5.88000007E-03   9.59779478E-12
   6.08999981E-03   1.19305815E-11
   6.30000001E-03   1.45931149E-11
   6.51000021E-03   1.75615598E-11
   6.71999995E-03   2.07836803E-11
   6.93000015E-03   2.41710454E-11
   7.13999989E-03   2.75902322E-11
   7.35000009E-03   3.08533234E-11
   7.55999982E-03   3.37077484E-11
   7.77000003E-03   3.58256480E-11
   7.98000023E-03   3.67929541E-11
   8.19000043E-03   3.60986553E-11
   8.39999970E-03   3.31245899E-11
   8.60999990E-03   2.71360833E-11
   8.82000010E-03   1.72738907E-11
   9.03000031E-03   2.54840051E-12
   9.23999958E-03  -1.81637778E-11
   9.44999978E-03  -4.61199308E-11
   9.65999998E-03  -8.27073340E-11
   9.87000018E-03  -1.29434893E-10
   1.00800004E-02  -1.87919347E-10
   1.02899997E-02  -2.59865046E-10
   1.04999999E-02  -3.47037482E-10
   1.07100001E-02  -4.51228555E-10
   1.09200003E-02  -5.74214787E-10
   1.11300005E-02  -7.17706283E-10
   1.13399997E-02  -8.83286722E-10
   1.15499999E-02  -1.07234455E-09
   1.17600001E-02  -1.28599564E-09
   1.19700003E-02  -1.52499513E-09
   1.21799996E-02  -1.78964210E-09
   1.23899998E-02  -2.07967554E-09
   1.26000000E-02  -2.39416331E-09
   1.28100002E-02  -2.73138556E-09
   1.30200004E-02  -3.08871195E-09
   1.32299997E-02  -3.46247875E-09
   1.34399999E-02  -3.84786292E-09
   1.36500001E-02  -4.23876090E-09
   1.38600003E-02  -4.62766936E-09
   1.40699996E-02  -5.00557507E-09
   1.42799998E-02  -5.36185629E-09
   1.44900000E-02  -5.68420067E-09
   1.47000002E-02  -5.95853633E-09
   1.49100004E-02  -6.16899554E-09
   1.51199996E-02  -6.29789643E-09
   1.53299998E-02  -6.32576436E-09
   1.55400001E-02  -6.23137941E-09
   1.57500003E-02  -5.99187944E-09
   1.59600005E-02  -5.58289015E-09
   1.61700007E-02  -4.97871699E-09
   1.63800009E-02  -4.15258405E-09
   1.65899992E-02  -3.07692494E-09
   1.67999994E-02  -1.72373660E-09
   1.70099996E-02  -6.49937257E-11
   1.72199998E-02   1.92688732E-09
   1.74300000E-02   4.27851221E-09
   1.76400002E-02   7.01491221E-09
   1.78500004E-02   1.01589057E-08
   1.80600006E-02   1.37303848E-08
   1.82700008E-02   1.77455650E-08
   1.84799992E-02   2.22161898E-08
   1.86899994E-02   2.71486904E-08
   1.88999996E-02   3.25433263E-08
   1.91099998E-02   3.83933063E-08
   1.93200000E-02   4.46838939E-08
   1.95300002E-02   5.13915346E-08
   1.97400004E-02   5.84829891E-08
   1.99500006E-02   6.59145272E-08
   2.01600008E-02   7.36311350E-08
   2.03699991E-02   8.15658510E-08
   2.05799993E-02   8.96391370E-08
   2.07899995E-02   9.77584094E-08
   2.09999997E-02   1.05817655E-07
   2.12099999E-02   1.13697240E-07
   2.14200001E-02   1.21263867E-07
   2.16300003E-02   1.28370758E-07
   2.18400005E-02   1.34857970E-07
   2.20500007E-02   1.40553070E-07
   2.22600009E-02   1.45271898E-07
   2.24699993E-02   1.48819751E-07
   2.26799995E-02   1.50992690E-07
   2.28899997E-02   1.51579286E-07
   2.30999999E-02   1.50362496E-07
   2.33100001E-02   1.47121995E-07
   2.35200003E-02   1.41636676E-07
   2.37300005E-02   1.33687493E-07
   2.39400007E-02   1.23060559E-07
   2.41500009E-02   1.09550591E-07
   2.43599992E-02   9.29644841E-08
   2.45699994E-02   7.31252072E-08
   2.47799996E-02   4.98758190E-08
   2.49899998E-02   2.30837411E-08
   2.52000000E-02  -7.35501526E-09
   2.54100002E-02  -4.15113313E-08
   2.56200004E-02  -7.94186050E-08
   2.58300006E-02  -1.21068368E-07
   2.60400008E-02  -1.66405883E-07
   2.62499992E-02  -2.15326111E-07
   2.64599994E-02  -2.67669719E-07
   2.66699996E-02  -3.23219467E-07
   2.68799998E-02  -3.81696935E-07
   2.70900000E-02  -4.42759756E-07
   2.73000002E-02  -5.05999253E-07
   2.75100004E-02  -5.70938710E-07
   2.77200006E-02  -6.37032542E-07
   2.79300008E-02  -7.03665762E-07
   2.81399991E-02  -7.70154656E-07
   2.83499993E-02  -8.35748210E-07
   2.85599995E-02  -8.99630209E-07
   2.87699997E-02  -9.60922989E-07
   2.89799999E-02  -1.01869148E-06
   2.91900001E-02  -1.07194865E-06
   2.94000003E-02  -1.11966222E-06
   2.96100006E-02  -1.16076194E-06
   2.98200008E-02  -1.19414869E-06
   3.00299991E-02  -1.21870403E-06
   3.02399993E-02  -1.23330096E-06
   3.04499995E-02  -1.23681627E-06
   3.06599997E-02  -1.22814288E-06
   3.08699999E-02  -1.20620371E-06
   3.10800001E-02  -1.16996603E-06
   3.12899984E-02  -1.11845725E-06
   3.15000005E-02  -1.05077982E-06
   3.17099988E-02  -9.66128027E-07
   3.19200009E-02  -8.63804075E-07
   3.21299993E-02  -7.43234693E-07
   3.23400013E-02  -6.03987644E-07
   3.25499997E-02  -4.45787521E-07
   3.27600017E-02  -2.68532091E-07
   3.29700001E-02  -7.23067402E-08
   3.31799984E-02   1.42601323E-07
   3.33900005E-02   3.75690007E-07
   3.35999988E-02   6.26230872E-07
   3.38100009E-02   8.93259255E-07
   3.40199992E-02   1.17556624E-06
   3.42300013E-02   1.47169169E-06
   3.44399996E-02   1.77992138E-06
   3.46500017E-02   2.09828499E-06
   3.48600000E-02   2.42455712E-06
   3.50699984E-02   2.75626144E-06
   3.52800004E-02   3.09067741E-06
   3.54899988E-02   3.42484987E-06
   3.57000008E-02   3.75560171E-06
   3.59099992E-02   4.07955122E-06
   3.61200012E-02   4.39312998E-06
   3.63299996E-02   4.69260704E-06
   3.65400016E-02   4.97411065E-06
   3.67500000E-02   5.23366316E-06
   3.69599983E-02   5.46720730E-06
   3.71700004E-02   5.67064444E-06
   3.73799987E-02   5.83986866E-06
   3.75900008E-02   5.97080907E-06
   3.77999991E-02   6.05946934E-06
   3.80100012E-02   6.10197276E-06
   3.82199995E-02   6.09460676E-06
   3.84300016E-02   6.03386843E-06
   3.86399999E-02   5.91651087E-06
   3.88499983E-02   5.73959278E-06
   3.90600003E-02   5.50052118E-06
   3.92699987E-02   5.19710147E-06
   3.94800007E-02   4.82757832E-06
   3.96899991E-02   4.39068117E-06
   3.99000011E-02   3.88566377E-06
   4.01099995E-02   3.31234401E-06
   4.03200015E-02   2.67113728E-06
   4.05299999E-02   1.96308565E-06
   4.07399982E-02   1.18988476E-06
   4.09500003E-02   3.53907552E-07
   4.11599986E-02  -5.41781390E-07
   4.13700007E-02  -1.49341577E-06
   4.15799990E-02  -2.49652135E-06
   4.17900011E-02  -3.54591839E-06
   4.19999994E-02  -4.63573178E-06
   4.22100015E-02  -5.75940612E-06
   4.24199998E-02  -6.90972729E-06
   4.26299982E-02  -8.07885317E-06
   4.28400002E-02  -9.25835138E-06
   4.30499986E-02  -1.04392420E-05
   4.32600006E-02  -1.16120500E-05
   4.34699990E-02  -1.27668636E-05
   4.36800011E-02  -1.38933992E-05
   4.38899994E-02  -1.49810685E-05
   4.41000015E-02  -1.60190630E-05
   4.43099998E-02  -1.69964278E-05
   4.45200019E-02  -1.79021536E-05
   4.47300002E-02  -1.87252681E-05
   4.49399985E-02  -1.94549284E-05
   4.51500006E-02  -2.00805171E-05
   4.53599989E-02  -2.05917440E-05
   4.55700010E-02  -2.09787431E-05
   4.57799993E-02  -2.12321702E-05
   4.59900014E-02  -2.13433104E-05
   4.61999997E-02  -2.13041712E-05
   4.64100018E-02  -2.11075767E-05
   4.66200002E-02  -2.07472513E-05
   4.68299985E-02  -2.02179181E-05
   4.70400006E-02  -1.95153734E-05
   4.72499989E-02  -1.86365578E-05
   4.74600010E-02  -1.75796285E-05
   4.76699993E-02  -1.63440200E-05
   4.78800014E-02  -1.49304815E-05
   4.80899997E-02  -1.33411268E-05
   4.83000018E-02  -1.15794628E-05
   4.85100001E-02  -9.65040726E-06
   4.87199984E-02  -7.56029976E-06
   4.89300005E-02  -5.31689057E-06
   4.91399989E-02  -2.92933100E-06
   4.93500009E-02  -4.08144160E-07
   4.95599993E-02   2.23481084E-06
   4.97700013E-02   4.98639201E-06
   4.99799997E-02   7.83224186E-06
   5.01900017E-02   1.07568512E-05
   5.04000001E-02   1.37436455E-05
   5.06099984E-02   1.67750877E-05
   5.08200005E-02   1.98327743E-05
   5.10299988E-02   2.28975496E-05
   5.12400009E-02   2.59496210E-05
   5.14499992E-02   2.89686959E-05
   5.16600013E-02   3.19341016E-05
   5.18699996E-02   3.48249414E-05
   5.20800017E-02   3.76202079E-05
   5.22900000E-02   4.02989499E-05
   5.24999984E-02   4.28404201E-05
   5.27100004E-02   4.52241875E-05
   5.29199988E-02   4.74303233E-05
   5.31300008E-02   4.94394953E-05
   5.33399992E-02   5.12331462E-05
   5.35500012E-02   5.27935990E-05
   5.37599996E-02   5.41041918E-05
   5.39700016E-02   5.51494013E-05
   5.41800000E-02   5.59149303E-05
   5.43899983E-02   5.63878457E-05
   5.46000004E-02   5.65566334E-05
   5.48099987E-02   5.64113070E-05
   5.50200008E-02   5.59434702E-05
   5.52299991E-02   5.51463672E-05
   5.54400012E-02   5.40149413E-05
   5.56499995E-02   5.25458599E-05
   5.58600016E-02   5.07375553E-05
   5.60699999E-02   4.85902165E-05
   5.62799983E-02   4.61058116E-05
   5.64900003E-02   4.32880661E-05
   5.66999987E-02   4.01424440E-05
   5.69100007E-02   3.66761124E-05
   5.71199991E-02   3.28979258E-05
   5.73300011E-02   2.88183473E-05
   5.75399995E-02   2.44494058E-05
   5.77500015E-02   1.98046382E-05
   5.79599999E-02   1.48990248E-05
   5.81699982E-02   9.74890008E-06
   5.83800003E-02   4.37189601E-06
   5.85899986E-02  -1.21312814E-06
   5.88000007E-02  -6.98618624E-06
   5.90099990E-02  -1.29262462E-05
   5.92200011E-02  -1.90112914E-05
   5.94299994E-02  -2.52183982E-05
   5.96400015E-02  -3.15238249E-05
   5.98499998E-02  -3.79030680E-05
   6.00599982E-02  -4.43309436E-05
   6.02700002E-02  -5.07816512E-05
   6.04799986E-02  -5.72288154E-05
   6.06900007E-02  -6.36455588E-05
   6.08999990E-02  -7.00045493E-05
   6.11100011E-02  -7.62780473E-05
   6.13199994E-02  -8.24379313E-05
   6.15300015E-02  -8.84557667E-05
   6.17399998E-02  -9.43028281E-05
   6.19499981E-02  -9.99500990E-05
   6.21600002E-02  -1.05368374E-04
   6.23699985E-02  -1.10528235E-04
   6.25799969E-02  -1.15400093E-04
   6.27899989E-02  -1.19954253E-04
   6.30000010E-02  -1.24160913E-04
   6.32100031E-02  -1.27990235E-04
   6.34199977E-02  -1.31412380E-04
   6.36299998E-02  -1.34397589E-04
   6.38400018E-02  -1.36916220E-04
   6.40499964E-02  -1.38938864E-04
   6.42599985E-02  -1.40436401E-04
   6.44700006E-02  -1.41380093E-04
   6.46800026E-02  -1.41741766E-04
   6.48899972E-02  -1.41493889E-04
   6.50999993E-02  -1.40609714E-04
   6.53100014E-02  -1.39063530E-04
   6.55200034E-02  -1.36830728E-04
   6.57299981E-02  -1.33888097E-04
   6.59400001E-02  -1.30213957E-04
   6.61500022E-02  -1.25788501E-04
   6.63599968E-02  -1.20593933E-04
   6.65699989E-02  -1.14614828E-04
   6.67800009E-02  -1.07838328E-04
   6.69900030E-02  -1.00254467E-04
   6.71999976E-02  -9.18564547E-05
   6.74099997E-02  -8.26410032E-05
   6.76200017E-02  -7.26086000E-05
   6.78299963E-02  -6.17638507E-05
   6.80399984E-02  -5.01156974E-05
   6.82500005E-02  -3.76778371E-05
   6.84600025E-02  -2.44689181E-05
   6.86699972E-02  -1.05128383E-05
   6.88799992E-02   4.16101011E-06
   6.90900013E-02   1.95175162E-05
   6.93000033E-02   3.55156481E-05
   6.95099980E-02   5.21083057E-05
   6.97200000E-02   6.92421454E-05
   6.99300021E-02   8.68575517E-05
   7.01399967E-02   1.04888510E-04
   7.03499988E-02   1.23262682E-04
   7.05600008E-02   1.41901459E-04
   7.07700029E-02   1.60720010E-04
   7.09799975E-02   1.79627561E-04
   7.11899996E-02   1.98527501E-04
   7.14000016E-02   2.17317778E-04
   7.16100037E-02   2.35891188E-04
   7.18199983E-02   2.54135870E-04
   7.20300004E-02   2.71935714E-04
   7.22400025E-02   2.89170974E-04
   7.24499971E-02   3.05718888E-04
   7.26599991E-02   3.21454339E-04
   7.28700012E-02   3.36250552E-04
   7.30800033E-02   3.49979964E-04
   7.32899979E-02   3.62515042E-04
   7.34999999E-02   3.73729185E-04
   7.37100020E-02   3.83497652E-04
   7.39199966E-02   3.91698559E-04
   7.41299987E-02   3.98213830E-04
   7.43400007E-02   4.02930280E-04
   7.45500028E-02   4.05740546E-04
   7.47599974E-02   4.06544277E-04
   7.49699995E-02   4.05249157E-04
   7.51800016E-02   4.01771773E-04
   7.53900036E-02   3.96038697E-04
   7.55999982E-02   3.87987588E-04
   7.58100003E-02   3.77567951E-04
   7.60200024E-02   3.64741980E-04
   7.62299970E-02   3.49485606E-04
   7.64399990E-02   3.31789051E-04
   7.66500011E-02   3.11657437E-04
   7.68600032E-02   2.89111544E-04
   7.70699978E-02   2.64188187E-04
   7.72799999E-02   2.36940527E-04
   7.74900019E-02   2.07438468E-04
   7.76999965E-02   1.75768597E-04
   7.79099986E-02   1.42034376E-04
   7.81200007E-02   1.06355925E-04
   7.83300027E-02   6.88698128E-05
   7.85399973E-02   2.97286279E-05
   7.87499994E-02  -1.08995446E-05
   7.89600015E-02  -5.28317250E-05
   7.91700035E-02  -9.58708042E-05
   7.93799981E-02  -1.39806565E-04
   7.95900002E-02  -1.84416684E-04
   7.98000023E-02  -2.29468016E-04
   8.00099969E-02  -2.74717691E-04
   8.02199990E-02  -3.19914689E-04
   8.04300010E-02  -3.64801206E-04
   8.06400031E-02  -4.09114291E-04
   8.08499977E-02  -4.52587614E-04
   8.10599998E-02  -4.94953129E-04
   8.12700018E-02  -5.35942847E-04
   8.14799964E-02  -5.75290760E-04
   8.16899985E-02  -6.12734526E-04
   8.19000006E-02  -6.48017449E-04
   8.21100026E-02  -6.80890458E-04
   8.23199973E-02  -7.11113913E-04
   8.25299993E-02  -7.38459290E-04
   8.27400014E-02  -7.62711046E-04
   8.29500034E-02  -7.83668365E-04
   8.31599981E-02  -8.01146671E-04
   8.33700001E-02  -8.14979197E-04
   8.35800022E-02  -8.25018447E-04
   8.37899968E-02  -8.31137586E-04
   8.39999989E-02  -8.33231257E-04
   8.42100009E-02  -8.31217039E-04
   8.44200030E-02  -8.25035910E-04
   8.46299976E-02  -8.14653060E-04
   8.48399997E-02  -8.00058653E-04
   8.50500017E-02  -7.81267881E-04
   8.52599964E-02  -7.58321199E-04
   8.54699984E-02  -7.31284206E-04
   8.56800005E-02  -7.00247649E-04
   8.58900025E-02  -6.65326719E-04
   8.60999972E-02  -6.26660709E-04
   8.63099992E-02  -5.84412133E-04
   8.65200013E-02  -5.38765686E-04
   8.67300034E-02  -4.89927130E-04
   8.69399980E-02  -4.38122253E-04
   8.71500000E-02  -3.83595150E-04
   8.73600021E-02  -3.26606736E-04
   8.75699967E-02  -2.67433177E-04
   8.77799988E-02  -2.06363766E-04
   8.79900008E-02  -1.43699275E-04
   8.82000029E-02  -7.97498869E-05
   8.84099975E-02  -1.48331874E-05
   8.86199996E-02   5.07279910E-05
   8.88300017E-02   1.16607749E-04
   8.90400037E-02   1.82479038E-04
   8.92499983E-02   2.48016033E-04
   8.94600004E-02   3.12896213E-04
   8.96700025E-02   3.76802229E-04
   8.98799971E-02   4.39424010E-04
   9.00899991E-02   5.00460737E-04
   9.03000012E-02   5.59622480E-04
   9.05100033E-02   6.16632227E-04
   9.07199979E-02   6.71227055E-04
   9.09299999E-02   7.23159930E-04
   9.11400020E-02   7.72200932E-04
   9.13499966E-02   8.18138302E-04
   9.15599987E-02   8.60779313E-04
   9.17700008E-02   8.99951439E-04
   9.19800028E-02   9.35502816E-04
   9.21899974E-02   9.67302709E-04
   9.23999995E-02   9.95241688E-04
   9.26100016E-02   1.01923198E-03
   9.28200036E-02   1.03920721E-03
   9.30299982E-02   1.05512235E-03
   9.32400003E-02   1.06695329E-03
   9.34500024E-02   1.07469596E-03
   9.36599970E-02   1.07836665E-03
   9.38699991E-02   1.07799971E-03
   9.40800011E-02   1.07364799E-03
   9.42900032E-02   1.06538122E-03
   9.44999978E-02   1.05328462E-03
   9.47099999E-02   1.03745819E-03
   9.49200019E-02   1.01801555E-03
   9.51299965E-02   9.95081966E-04
   9.53399986E-02   9.68793815E-04
   9.55500007E-02   9.39296500E-04
   9.57600027E-02   9.06743808E-04
   9.59699973E-02   8.71296332E-04
   9.61799994E-02   8.33120081E-04
   9.63900015E-02   7.92385312E-04
   9.66000035E-02   7.49265600E-04
   9.68099982E-02   7.03936559E-04
   9.70200002E-02   6.56574790E-04
   9.72300023E-02   6.07357186E-04
   9.74399969E-02   5.56460291E-04
   9.76499990E-02   5.04059135E-04
   9.78600010E-02   4.50327090E-04
   9.80700031E-02   3.95435287E-04
   9.82799977E-02   3.39552120E-04
   9.84899998E-02   2.82843394E-04
   9.87000018E-02   2.25472162E-04
   9.89099964E-02   1.67598584E-04
   9.91199985E-02   1.09379944E-04
   9.93300006E-02   5.09711390E-05
   9.95400026E-02  -7.47517970E-06
   9.97499973E-02  -6.58081335E-05
   9.99599993E-02  -1.23878359E-04
  0.100170001      -1.81537485E-04
  0.100380003      -2.38637294E-04
  0.100589998      -2.95029691E-04
  0.100800000      -3.50565970E-04
  0.101010002      -4.05096216E-04
  0.101219997      -4.58469236E-04
  0.101429999      -5.10531710E-04
  0.101640001      -5.61127963E-04
  0.101850003      -6.10099756E-04
  0.102059998      -6.57286088E-04
  0.102270000      -7.02523219E-04
  0.102480002      -7.45644385E-04
  0.102689996      -7.86480552E-04
  0.102899998      -8.24860123E-04
  0.103110000      -8.60609987E-04
  0.103320003      -8.93555640E-04
  0.103529997      -9.23522399E-04
  0.103739999      -9.50336049E-04
  0.103950001      -9.73823946E-04
  0.104160003      -9.93816182E-04
  0.104369998      -1.01014727E-03
  0.104580000      -1.02265726E-03
  0.104790002      -1.03119353E-03
  0.104999997      -1.03561254E-03
  0.105209999      -1.03578169E-03
  0.105420001      -1.03158096E-03
  0.105630003      -1.02290499E-03
  0.105839998      -1.00966473E-03
  0.106050000      -9.91790439E-04
  0.106260002      -9.69232118E-04
  0.106470004      -9.41962644E-04
  0.106679998      -9.09979106E-04
  0.106890000      -8.73304263E-04
  0.107100002      -8.31988989E-04
  0.107309997      -7.86112971E-04
  0.107519999      -7.35786336E-04
  0.107730001      -6.81150763E-04
  0.107940003      -6.22380292E-04
  0.108149998      -5.59682143E-04
  0.108360000      -4.93297004E-04
  0.108570002      -4.23498976E-04
  0.108779997      -3.50595539E-04
  0.108989999      -2.74927472E-04
  0.109200001      -1.96867506E-04
  0.109410003      -1.16819487E-04
  0.109619997      -3.52165771E-05
  0.109830000       4.74804256E-05
  0.110040002       1.30784436E-04
  0.110250004       2.14185085E-04
  0.110459998       2.97151651E-04
  0.110670000       3.79135483E-04
  0.110880002       4.59573639E-04
  0.111089997       5.37892163E-04
  0.111299999       6.13509968E-04
  0.111510001       6.85842882E-04
  0.111720003       7.54307490E-04
  0.111929998       8.18325090E-04
  0.112140000       8.77326936E-04
  0.112350002       9.30758019E-04
  0.112559997       9.78080905E-04
  0.112769999       1.01878121E-03
  0.112980001       1.05237181E-03
  0.113190003       1.07839715E-03
  0.113399997       1.09643606E-03
  0.113609999       1.10610703E-03
  0.113820001       1.10707188E-03
  0.114030004       1.09903922E-03
  0.114239998       1.08176703E-03
  0.114450000       1.05506601E-03
  0.114660002       1.01880194E-03
  0.114869997       9.72897746E-04
  0.115079999       9.17335739E-04
  0.115290001       8.52158060E-04
  0.115500003       7.77468202E-04
  0.115709998       6.93431241E-04
  0.115920000       6.00273255E-04
  0.116130002       4.98281443E-04
  0.116339996       3.87802982E-04
  0.116549999       2.69243086E-04
  0.116760001       1.43063255E-04
  0.116970003       9.77858417E-06
  0.117179997      -1.30044442E-04
  0.117389999      -2.75791681E-04
  0.117600001      -4.26804967E-04
  0.117810003      -5.82386390E-04
  0.118019998      -7.41802272E-04
  0.118230000      -9.04287037E-04
  0.118440002      -1.06904900E-03
  0.118649997      -1.23527518E-03
  0.118859999      -1.40213675E-03
  0.119070001      -1.56879378E-03
  0.119280003      -1.73440040E-03
  0.119489998      -1.89811015E-03
  0.119700000      -2.05908157E-03
  0.119910002      -2.21648370E-03
  0.120119996      -2.36949883E-03
  0.120329998      -2.51733069E-03
  0.120540000      -2.65920605E-03
  0.120750003      -2.79438053E-03
  0.120959997      -2.92214123E-03
  0.121169999      -3.04181199E-03
  0.121380001      -3.15275555E-03
  0.121590003      -3.25437542E-03
  0.121799998      -3.34612024E-03
  0.122010000      -3.42748361E-03
  0.122220002      -3.49800591E-03
  0.122429997      -3.55727645E-03
  0.122639999      -3.60493222E-03
  0.122850001      -3.64065962E-03
  0.123060003      -3.66419181E-03
  0.123269998      -3.67530948E-03
  0.123480000      -3.67383799E-03
  0.123690002      -3.65964836E-03
  0.123899996      -3.63265257E-03
  0.124109998      -3.59280105E-03
  0.124320000      -3.54008214E-03
  0.124530002      -3.47451866E-03
  0.124739997      -3.39616300E-03
  0.124949999      -3.30509664E-03
  0.125159994      -3.20142577E-03
  0.125369996      -3.08527821E-03
  0.125579998      -2.95680040E-03
  0.125790000      -2.81615509E-03
  0.126000002      -2.66351784E-03
  0.126210004      -2.49907537E-03
  0.126420006      -2.32302421E-03
  0.126629993      -2.13556807E-03
  0.126839995      -1.93691766E-03
  0.127049997      -1.72728894E-03
  0.127260000      -1.50690309E-03
  0.127470002      -1.27598969E-03
  0.127680004      -1.03478541E-03
  0.127890006      -7.83535244E-04
  0.128099993      -5.22498332E-04
  0.128309995      -2.51948280E-04
  0.128519997       2.78200914E-05
  0.128729999       3.16486519E-04
  0.128940001       6.13700948E-04
  0.129150003       9.19076265E-04
  0.129360005       1.23218319E-03
  0.129570007       1.55253790E-03
  0.129779994       1.87959545E-03
  0.129989997       2.21274304E-03
  0.130199999       2.55128881E-03
  0.130410001       2.89445207E-03
  0.130620003       3.24135087E-03
  0.130830005       3.59099475E-03
  0.131040007       3.94227123E-03
  0.131249994       4.29393258E-03
  0.131459996       4.64458950E-03
  0.131669998       4.99269553E-03
  0.131880000       5.33653749E-03
  0.132090002       5.67422621E-03
  0.132300004       6.00368017E-03
  0.132510006       6.32262230E-03
  0.132719994       6.62856502E-03
  0.132929996       6.91880239E-03
  0.133139998       7.19040493E-03
  0.133350000       7.44020939E-03
  0.133560002       7.66481180E-03
  0.133770004       7.86056183E-03
  0.133980006       8.02356098E-03
  0.134189993       8.14965554E-03
  0.134399995       8.23443849E-03
  0.134609997       8.27324949E-03
  0.134819999       8.26117396E-03
  0.135030001       8.19304120E-03
  0.135240003       8.06343742E-03
  0.135450006       7.86670484E-03
  0.135659993       7.59694865E-03
  0.135869995       7.24805100E-03
  0.136079997       6.81367423E-03
  0.136289999       6.28727302E-03
  0.136500001       5.66211389E-03
  0.136710003       4.93128691E-03
  0.136920005       4.08771820E-03
  0.137130007       3.12418956E-03
  0.137339994       2.03335774E-03
  0.137549996       8.07776989E-04
  0.137759998      -5.60086628E-04
  0.137970001      -2.07782770E-03
  0.138180003      -3.75307933E-03
  0.138390005      -5.59349405E-03
  0.138600007      -7.60671031E-03
  0.138809994      -9.80033353E-03
  0.139019996      -1.21819125E-02
  0.139229998      -1.47589054E-02
  0.139440000      -1.75386705E-02
  0.139650002      -2.05284208E-02
  0.139860004      -2.37351991E-02
  0.140070006      -2.71658748E-02
  0.140279993      -3.08270995E-02
  0.140489995      -3.47252786E-02
  0.140699998      -3.88665497E-02
  0.140910000      -4.32567894E-02
  0.141120002      -4.79015522E-02
  0.141330004      -5.28060645E-02
  0.141540006      -5.79752028E-02
  0.141749993      -6.34134784E-02
  0.141959995      -6.91250190E-02
  0.142169997      -7.51135573E-02
  0.142379999      -8.13823864E-02
  0.142590001      -8.79344046E-02
  0.142800003      -9.47720483E-02
  0.143010005     -0.101897314    
  0.143220007     -0.109311752    
  0.143429995     -0.117016435    
  0.143639997     -0.125011981    
  0.143849999     -0.133298546    
  0.144060001     -0.141875803    
  0.144270003     -0.150742963    
  0.144480005     -0.159898788    
  0.144690007     -0.169341549    
  0.144899994     -0.179069087    
  0.145109996     -0.189078823    
  0.145319998     -0.199367717    
  0.145530000     -0.209932297    
  0.145740002     -0.220768690    
  0.145950004     -0.231872648    
  0.146160007     -0.243239507    
  0.146369994     -0.254864275    
  0.146579996     -0.266741604    
  0.146789998     -0.278865755    
  0.147000000     -0.291230798    
  0.147210002     -0.303830385    
  0.147420004     -0.316657990    
  0.147630006     -0.329706848    
  0.147839993     -0.342969894    
  0.148049995     -0.356439829    
  0.148259997     -0.370109320    
  0.148469999     -0.383970708    
  0.148680001     -0.398016244    
  0.148890004     -0.412238151    
  0.149100006     -0.426628441    
  0.149309993     -0.441179127    
  0.149519995     -0.455882072    
  0.149729997     -0.470729172    
  0.149939999     -0.485712230    
  0.150150001     -0.500823140    
  0.150360003     -0.516053736    
  0.150570005     -0.531395972    
  0.150780007     -0.546841800    
  0.150989994     -0.562383175    
  0.151199996     -0.578012288    
  0.151409999     -0.593721271    
  0.151620001     -0.609502316    
  0.151830003     -0.625347972    
  0.152040005     -0.641250730    
  0.152250007     -0.657203197    
  0.152459994     -0.673198283    
  0.152669996     -0.689228892    
  0.152879998     -0.705288172    
  0.153090000     -0.721369386    
  0.153300002     -0.737466097    
  0.153510004     -0.753571808    
  0.153720006     -0.769680381    
  0.153929994     -0.785785735    
  0.154139996     -0.801882148    
  0.154349998     -0.817963839    
  0.154560000     -0.834025323    
  0.154770002     -0.850061417    
  0.154980004     -0.866066813    
  0.155190006     -0.882036746    
  0.155399993     -0.897966325    
  0.155609995     -0.913850963    
  0.155819997     -0.929686189    
  0.156029999     -0.945467830    
  0.156240001     -0.961191714    
  0.156450003     -0.976853848    
  0.156660005     -0.992450416    
  0.156869993      -1.00797784    
  0.157079995      -1.02343261    
  0.157289997      -1.03881121    
  0.157499999      -1.05411053    
  0.157710001      -1.06932747    
  0.157920003      -1.08445895    
  0.158130005      -1.09950233    
  0.158340007      -1.11445463    
  0.158549994      -1.12931323    
  0.158759996      -1.14407575    
  0.158969998      -1.15873969    
  0.159180000      -1.17330289    
  0.159390002      -1.18776309    
  0.159600005      -1.20211816    
  0.159810007      -1.21636605    
  0.160019994      -1.23050511    
  0.160229996      -1.24453330    
  0.160439998      -1.25844908    
  0.160650000      -1.27225089    
  0.160860002      -1.28593695    
  0.161070004      -1.29950607    
  0.161280006      -1.31295693    
  0.161489993      -1.32628834    
  0.161699995      -1.33949924    
  0.161909997      -1.35258842    
  0.162120000      -1.36555505    
  0.162330002      -1.37839866    
  0.162540004      -1.39111817    
  0.162750006      -1.40371323    
  0.162959993      -1.41618335    
  0.163169995      -1.42852819    
  0.163379997      -1.44074762    
  0.163589999      -1.45284164    
  0.163800001      -1.46481037    
  0.164010003      -1.47665381    
  0.164220005      -1.48837256    
  0.164430007      -1.49996710    
  0.164639995      -1.51143825    
  0.164849997      -1.52278662    
  0.165059999      -1.53401339    
  0.165270001      -1.54511976    
  0.165480003      -1.55610704    
  0.165690005      -1.56697702    
  0.165900007      -1.57773125    
  0.166109994      -1.58837199    
  0.166319996      -1.59890115    
  0.166529998      -1.60932112    
  0.166740000      -1.61963451    
  0.166950002      -1.62984407    
  0.167160004      -1.63995290    
  0.167370006      -1.64996409    
  0.167579994      -1.65988100    
  0.167789996      -1.66970730    
  0.167999998      -1.67944670    
  0.168210000      -1.68910360    
  0.168420002      -1.69868195    
  0.168630004      -1.70818651    
  0.168840006      -1.71762156    
  0.169049993      -1.72699213    
  0.169259995      -1.73630321    
  0.169469997      -1.74556005    
  0.169679999      -1.75476801    
  0.169890001      -1.76393270    
  0.170100003      -1.77305973    
  0.170310006      -1.78215492    
  0.170519993      -1.79122436    
  0.170729995      -1.80027413    
  0.170939997      -1.80931020    
  0.171149999      -1.81833911    
  0.171360001      -1.82736707    
  0.171570003      -1.83640051    
  0.171780005      -1.84544587    
  0.171990007      -1.85450959    
  0.172199994      -1.86359823    
  0.172409996      -1.87271810    
  0.172619998      -1.88187563    
  0.172830001      -1.89107716    
  0.173040003      -1.90032899    
  0.173250005      -1.90963733    
  0.173460007      -1.91900802    
  0.173669994      -1.92844689    
  0.173879996      -1.93795979    
  0.174089998      -1.94755232    
  0.174300000      -1.95722973    
  0.174510002      -1.96699703    
  0.174720004      -1.97685897    
  0.174930006      -1.98682022    
  0.175139993      -1.99688482    
  0.175349995      -2.00705671    
  0.175559998      -2.01733947    
  0.175770000      -2.02773643    
  0.175980002      -2.03825045    
  0.176190004      -2.04888391    
  0.176400006      -2.05963874    
  0.176609993      -2.07051682    
  0.176819995      -2.08151913    
  0.177029997      -2.09264660    
  0.177239999      -2.10389948    
  0.177450001      -2.11527753    
  0.177660003      -2.12678003    
  0.177870005      -2.13840604    
  0.178080007      -2.15015435    
  0.178289995      -2.16202235    
  0.178499997      -2.17400813    
  0.178709999      -2.18610835    
  0.178920001      -2.19831991    
  0.179130003      -2.21063900    
  0.179340005      -2.22306061    
  0.179550007      -2.23558068    
  0.179759994      -2.24819374    