   0.00000000       0.00000000    
   2.09999998E-04   0.00000000    
   4.19999997E-04   0.00000000    
   6.30000024E-04   0.00000000    
   8.39999993E-04  -4.19528688E-20
   1.04999996E-03  -4.06721579E-19
   1.26000005E-03  -2.10913106E-18
   1.47000002E-03  -7.79268657E-18
   1.67999999E-03  -2.29795671E-17
   1.88999996E-03  -5.73578882E-17
   2.09999993E-03  -1.25358692E-16
   2.30999989E-03  -2.44682805E-16
   2.52000010E-03  -4.30683458E-16
   2.73000007E-03  -6.83568347E-16
   2.94000003E-03  -9.64350928E-16
   3.15000000E-03  -1.15429817E-15
   3.35999997E-03  -9.91415219E-16
   3.56999994E-03   2.36579429E-17
   3.77999991E-03   2.76108304E-15
   3.99000011E-03   8.64420670E-15
   4.19999985E-03   1.98912474E-14
   4.41000005E-03   3.98265778E-14
   4.61999979E-03   7.32716432E-14
   4.82999999E-03   1.27025249E-13
   5.04000019E-03   2.10440525E-13
   5.24999993E-03   3.36102999E-13
   5.46000013E-03   5.20613121E-13
   5.66999987E-03   7.85468316E-13
   5.88000007E-03   1.15803894E-12
   6.08999981E-03   1.67262406E-12
   6.30000001E-03   2.37156236E-12
   6.51000021E-03   3.30637644E-12
   6.71999995E-03   4.53890267E-12
   6.93000015E-03   6.14236917E-12
   7.13999989E-03   8.20236327E-12
   7.35000009E-03   1.08176168E-11
   7.55999982E-03   1.41005506E-11
   7.77000003E-03   1.81774838E-11
   7.98000023E-03   2.31884113E-11
   8.19000043E-03   2.92862817E-11
   8.39999970E-03   3.66356459E-11
   8.60999990E-03   4.54106024E-11
   8.82000010E-03   5.57919475E-11
   9.03000031E-03   6.79634196E-11
   9.23999958E-03   8.21069185E-11
   9.44999978E-03   9.83967421E-11
   9.65999998E-03   1.16992679E-10
   9.87000018E-03   1.38031947E-10
   1.00800004E-02   1.61620120E-10
   1.02899997E-02   1.87820690E-10
   1.04999999E-02   2.16643911E-10
   1.07100001E-02   2.48034426E-10
   1.09200003E-02   2.81858203E-10
   1.11300005E-02   3.17888965E-10
   1.13399997E-02   3.55794005E-10
   1.15499999E-02   3.95120131E-10
   1.17600001E-02   4.35279868E-10
   1.19700003E-02   4.75538164E-10
   1.21799996E-02   5.15000431E-10
   1.23899998E-02   5.52602131E-10
   1.26000000E-02   5.87099924E-10
   1.28100002E-02   6.17066509E-10
   1.30200004E-02   6.40887787E-10
   1.32299997E-02   6.56764365E-10
   1.34399999E-02   6.62716992E-10
   1.36500001E-02   6.56598054E-10
   1.38600003E-02   6.36107444E-10
   1.40699996E-02   5.98814998E-10
   1.42799998E-02   5.42190126E-10
   1.44900000E-02   4.63637045E-10
   1.47000002E-02   3.60539182E-10
   1.49100004E-02   2.30309147E-10
   1.51199996E-02   7.04468220E-11
   1.53299998E-02  -1.21394256E-10
   1.55400001E-02  -3.47334633E-10
   1.57500003E-02  -6.09189699E-10
   1.59600005E-02  -9.08383535E-10
   1.61700007E-02  -1.24585864E-09
   1.63800009E-02  -1.62198110E-09
   1.65899992E-02  -2.03644235E-09
   1.67999994E-02  -2.48816079E-09
   1.70099996E-02  -2.97518232E-09
   1.72199998E-02  -3.49458440E-09
   1.74300000E-02  -4.04238421E-09
   1.76400002E-02  -4.61345273E-09
   1.78500004E-02  -5.20143972E-09
   1.80600006E-02  -5.79870729E-09
   1.82700008E-02  -6.39628261E-09
   1.84799992E-02  -6.98382507E-09
   1.86899994E-02  -7.54961249E-09
   1.88999996E-02  -8.08055134E-09
   1.91099998E-02  -8.56221671E-09
   1.93200000E-02  -8.97891095E-09
   1.95300002E-02  -9.31376132E-09
   1.97400004E-02  -9.54884438E-09
   1.99500006E-02  -9.66534941E-09
   2.01600008E-02  -9.64377112E-09
   2.03699991E-02  -9.46414591E-09
   2.05799993E-02  -9.10631570E-09
   2.07899995E-02  -8.55023963E-09
   2.09999997E-02  -7.77632803E-09
   2.12099999E-02  -6.76582390E-09
   2.14200001E-02  -5.50120660E-09
   2.16300003E-02  -3.96662303E-09
   2.18400005E-02  -2.14835683E-09
   2.20500007E-02  -3.53019385E-11
   2.22600009E-02   2.38054221E-09
   2.24699993E-02   5.10356335E-09
   2.26799995E-02   8.13403478E-09
   2.28899997E-02   1.14676135E-08
   2.30999999E-02   1.50948534E-08
   2.33100001E-02   1.90007565E-08
   2.35200003E-02   2.31643273E-08
   2.37300005E-02   2.75582046E-08
   2.39400007E-02   3.21483178E-08
   2.41500009E-02   3.68936277E-08
   2.43599992E-02   4.17459205E-08
   2.45699994E-02   4.66497241E-08
   2.47799996E-02   5.15422620E-08
   2.49899998E-02   5.63535671E-08
   2.52000000E-02   6.10066806E-08
   2.54100002E-02   6.54179715E-08
   2.56200004E-02   6.94975881E-08
   2.58300006E-02   7.31500407E-08
   2.60400008E-02   7.62749508E-08
   2.62499992E-02   7.87679042E-08
   2.64599994E-02   8.05214526E-08
   2.66699996E-02   8.14262506E-08
   2.68799998E-02   8.13723986E-08
   2.70900000E-02   8.02508211E-08
   2.73000002E-02   7.79548088E-08
   2.75100004E-02   7.43817239E-08
   2.77200006E-02   6.94347122E-08
   2.79300008E-02   6.30246220E-08
   2.81399991E-02   5.50718759E-08
   2.83499993E-02   4.55084930E-08
   2.85599995E-02   3.42800668E-08
   2.87699997E-02   2.13477875E-08
   2.89799999E-02   6.69044953E-09
   2.91900001E-02  -9.69362368E-09
   2.94000003E-02  -2.77847008E-08
   2.96100006E-02  -4.75398849E-08
   2.98200008E-02  -6.88915023E-08
   3.00299991E-02  -9.17456617E-08
   3.02399993E-02  -1.15981017E-07
   3.04499995E-02  -1.41447728E-07
   3.06599997E-02  -1.67966832E-07
   3.08699999E-02  -1.95329676E-07
   3.10800001E-02  -2.23297988E-07
   3.12899984E-02  -2.51604007E-07
   3.15000005E-02  -2.79951166E-07
   3.17099988E-02  -3.08015217E-07
   3.19200009E-02  -3.35445520E-07
   3.21299993E-02  -3.61867109E-07
   3.23400013E-02  -3.86883102E-07
   3.25499997E-02  -4.10077206E-07
   3.27600017E-02  -4.31017355E-07
   3.29700001E-02  -4.49259062E-07
   3.31799984E-02  -4.64349853E-07
   3.33900005E-02  -4.75833502E-07
   3.35999988E-02  -4.83255178E-07
   3.38100009E-02  -4.86166812E-07
   3.40199992E-02  -4.84132272E-07
   3.42300013E-02  -4.76733760E-07
   3.44399996E-02  -4.63577777E-07
   3.46500017E-02  -4.44301207E-07
   3.48600000E-02  -4.18578026E-07
   3.50699984E-02  -3.86125578E-07
   3.52800004E-02  -3.46710976E-07
   3.54899988E-02  -3.00157581E-07
   3.57000008E-02  -2.46351050E-07
   3.59099992E-02  -1.85245312E-07
   3.61200012E-02  -1.16868023E-07
   3.63299996E-02  -4.13257979E-08
   3.65400016E-02   4.11912140E-08
   3.67500000E-02   1.30405297E-07
   3.69599983E-02   2.25947858E-07
   3.71700004E-02   3.27356787E-07
   3.73799987E-02   4.34074565E-07
   3.75900008E-02   5.45447733E-07
   3.77999991E-02   6.60726698E-07
   3.80100012E-02   7.79067022E-07
   3.82199995E-02   8.99531244E-07
   3.84300016E-02   1.02109288E-06
   3.86399999E-02   1.14264014E-06
   3.88499983E-02   1.26298198E-06
   3.90600003E-02   1.38085477E-06
   3.92699987E-02   1.49492996E-06
   3.94800007E-02   1.60382365E-06
   3.96899991E-02   1.70610622E-06
   3.99000011E-02   1.80031395E-06
   4.01099995E-02   1.88496131E-06
   4.03200015E-02   1.95855364E-06
   4.05299999E-02   2.01960188E-06
   4.07399982E-02   2.06663731E-06
   4.09500003E-02   2.09822633E-06
   4.11599986E-02   2.11298720E-06
   4.13700007E-02   2.10960638E-06
   4.15799990E-02   2.08685424E-06
   4.17900011E-02   2.04360299E-06
   4.19999994E-02   1.97884310E-06
   4.22100015E-02   1.89169873E-06
   4.24199998E-02   1.78144512E-06
   4.26299982E-02   1.64752339E-06
   4.28400002E-02   1.48955530E-06
   4.30499986E-02   1.30735702E-06
   4.32600006E-02   1.10095164E-06
   4.34699990E-02   8.70581061E-07
   4.36800011E-02   6.16715454E-07
   4.38899994E-02   3.40061803E-07
   4.41000015E-02   4.15704697E-08
   4.43099998E-02  -2.77560105E-07
   4.45200019E-02  -6.15880822E-07
   4.47300002E-02  -9.71691065E-07
   4.49399985E-02  -1.34304082E-06
   4.51500006E-02  -1.72773457E-06
   4.53599989E-02  -2.12333703E-06
   4.55700010E-02  -2.52718246E-06
   4.57799993E-02  -2.93638595E-06
   4.59900014E-02  -3.34785727E-06
   4.61999997E-02  -3.75831496E-06
   4.64100018E-02  -4.16430703E-06
   4.66200002E-02  -4.56222961E-06
   4.68299985E-02  -4.94835103E-06
   4.70400006E-02  -5.31883643E-06
   4.72499989E-02  -5.66977451E-06
   4.74600010E-02  -5.99720397E-06
   4.76699993E-02  -6.29714759E-06
   4.78800014E-02  -6.56564043E-06
   4.80899997E-02  -6.79876257E-06
   4.83000018E-02  -6.99267457E-06
   4.85100001E-02  -7.14365115E-06
   4.87199984E-02  -7.24811525E-06
   4.89300005E-02  -7.30267311E-06
   4.91399989E-02  -7.30414877E-06
   4.93500009E-02  -7.24962001E-06
   4.95599993E-02  -7.13645068E-06
   4.97700013E-02  -6.96232382E-06
   4.99799997E-02  -6.72527403E-06
   5.01900017E-02  -6.42371515E-06
   5.04000001E-02  -6.05647347E-06
   5.06099984E-02  -5.62280957E-06
   5.08200005E-02  -5.12244333E-06
   5.10299988E-02  -4.55557620E-06
   5.12400009E-02  -3.92291076E-06
   5.14499992E-02  -3.22566439E-06
   5.16600013E-02  -2.46558284E-06
   5.18699996E-02  -1.64494975E-06
   5.20800017E-02  -7.66592677E-07
   5.22900000E-02   1.66115399E-07
   5.24999984E-02   1.14925706E-06
   5.27100004E-02   2.17837623E-06
   5.29199988E-02   3.24848725E-06
   5.31300008E-02   4.35408674E-06
   5.33399992E-02   5.48917296E-06
   5.35500012E-02   6.64726304E-06
   5.37599996E-02   7.82142070E-06
   5.39700016E-02   9.00428495E-06
   5.41800000E-02   1.01880996E-05
   5.43899983E-02   1.13647502E-05
   5.46000004E-02   1.25258020E-05
   5.48099987E-02   1.36625467E-05
   5.50200008E-02   1.47660421E-05
   5.52299991E-02   1.58271650E-05
   5.54400012E-02   1.68366605E-05
   5.56499995E-02   1.77851962E-05
   5.58600016E-02   1.86634170E-05
   5.60699999E-02   1.94620079E-05
   5.62799983E-02   2.01717485E-05
   5.64900003E-02   2.07835765E-05
   5.66999987E-02   2.12886498E-05
   5.69100007E-02   2.16784192E-05
   5.71199991E-02   2.19446756E-05
   5.73300011E-02   2.20796264E-05
   5.75399995E-02   2.20759612E-05
   5.77500015E-02   2.19269114E-05
   5.79599999E-02   2.16263197E-05
   5.81699982E-02   2.11686984E-05
   5.83800003E-02   2.05492906E-05
   5.85899986E-02   1.97641384E-05
   5.88000007E-02   1.88101349E-05
   5.90099990E-02   1.76850790E-05
   5.92200011E-02   1.63877339E-05
   5.94299994E-02   1.49178813E-05
   5.96400015E-02   1.32763571E-05
   5.98499998E-02   1.14651029E-05
   6.00599982E-02   9.48720754E-06
   6.02700002E-02   7.34693458E-06
   6.04799986E-02   5.04975924E-06
   6.06900007E-02   2.60238880E-06
   6.08999990E-02   1.27852182E-08
   6.11100011E-02  -2.70982582E-06
   6.13199994E-02  -5.55494444E-06
   6.15300015E-02  -8.51080040E-06
   6.17399998E-02  -1.15643597E-05
   6.19499981E-02  -1.47013379E-05
   6.21600002E-02  -1.79062245E-05
   6.23699985E-02  -2.11623174E-05
   6.25799969E-02  -2.44517614E-05
   6.27899989E-02  -2.77555991E-05
   6.30000010E-02  -3.10538198E-05
   6.32100031E-02  -3.43254505E-05
   6.34199977E-02  -3.75486052E-05
   6.36299998E-02  -4.07005973E-05
   6.38400018E-02  -4.37580275E-05
   6.40499964E-02  -4.66968886E-05
   6.42599985E-02  -4.94926862E-05
   6.44700006E-02  -5.21205766E-05
   6.46800026E-02  -5.45554758E-05
   6.48899972E-02  -5.67722382E-05
   6.50999993E-02  -5.87458053E-05
   6.53100014E-02  -6.04513516E-05
   6.55200034E-02  -6.18644699E-05
   6.57299981E-02  -6.29613714E-05
   6.59400001E-02  -6.37190315E-05
   6.61500022E-02  -6.41154111E-05
   6.63599968E-02  -6.41296501E-05
   6.65699989E-02  -6.37422636E-05
   6.67800009E-02  -6.29353526E-05
   6.69900030E-02  -6.16927791E-05
   6.71999976E-02  -6.00004169E-05
   6.74099997E-02  -5.78463332E-05
   6.76200017E-02  -5.52209749E-05
   6.78299963E-02  -5.21173788E-05
   6.80399984E-02  -4.85313503E-05
   6.82500005E-02  -4.44616526E-05
   6.84600025E-02  -3.99101700E-05
   6.86699972E-02  -3.48820613E-05
   6.88799992E-02  -2.93858902E-05
   6.90900013E-02  -2.34337749E-05
   6.93000033E-02  -1.70414733E-05
   6.95099980E-02  -1.02284803E-05
   6.97200000E-02  -3.01808154E-06
   6.99300021E-02   4.56259841E-06
   7.01399967E-02   1.24825938E-05
   7.03499988E-02   2.07071007E-05
   7.05600008E-02   2.91975284E-05
   7.07700029E-02   3.79115663E-05
   7.09799975E-02   4.68032995E-05
   7.11899996E-02   5.58233296E-05
   7.14000016E-02   6.49189751E-05
   7.16100037E-02   7.40344549E-05
   7.18199983E-02   8.31111101E-05
   7.20300004E-02   9.20877210E-05
   7.22400025E-02   1.00900797E-04
   7.24499971E-02   1.09484892E-04
   7.26599991E-02   1.17773001E-04
   7.28700012E-02   1.25696970E-04
   7.30800033E-02   1.33187903E-04
   7.32899979E-02   1.40176664E-04
   7.34999999E-02   1.46594277E-04
   7.37100020E-02   1.52372551E-04
   7.39199966E-02   1.57444505E-04
   7.41299987E-02   1.61744989E-04
   7.43400007E-02   1.65211139E-04
   7.45500028E-02   1.67783059E-04
   7.47599974E-02   1.69404288E-04
   7.49699995E-02   1.70022424E-04
   7.51800016E-02   1.69589737E-04
   7.53900036E-02   1.68063547E-04
   7.55999982E-02   1.65406949E-04
   7.58100003E-02   1.61589240E-04
   7.60200024E-02   1.56586437E-04
   7.62299970E-02   1.50381733E-04
   7.64399990E-02   1.42965961E-04
   7.66500011E-02   1.34337955E-04
   7.68600032E-02   1.24504892E-04
   7.70699978E-02   1.13482587E-04
   7.72799999E-02   1.01295765E-04
   7.74900019E-02   8.79782165E-05
   7.76999965E-02   7.35729263E-05
   7.79099986E-02   5.81321474E-05
   7.81200007E-02   4.17173433E-05
   7.83300027E-02   2.43991581E-05
   7.85399973E-02   6.25721805E-06
   7.87499994E-02  -1.26201112E-05
   7.89600015E-02  -3.21360130E-05
   7.91700035E-02  -5.21856018E-05
   7.93799981E-02  -7.26564176E-05
   7.95900002E-02  -9.34289710E-05
   7.98000023E-02  -1.14377348E-04
   8.00099969E-02  -1.35369919E-04
   8.02199990E-02  -1.56270049E-04
   8.04300010E-02  -1.76936985E-04
   8.06400031E-02  -1.97226705E-04
   8.08499977E-02  -2.16992921E-04
   8.10599998E-02  -2.36087944E-04
   8.12700018E-02  -2.54363898E-04
   8.14799964E-02  -2.71673605E-04
   8.16899985E-02  -2.87871866E-04
   8.19000006E-02  -3.02816479E-04
   8.21100026E-02  -3.16369405E-04
   8.23199973E-02  -3.28397960E-04
   8.25299993E-02  -3.38775804E-04
   8.27400014E-02  -3.47384281E-04
   8.29500034E-02  -3.54113319E-04
   8.31599981E-02  -3.58862628E-04
   8.33700001E-02  -3.61542596E-04
   8.35800022E-02  -3.62075371E-04
   8.37899968E-02  -3.60395759E-04
   8.39999989E-02  -3.56451928E-04
   8.42100009E-02  -3.50206334E-04
   8.44200030E-02  -3.41636158E-04
   8.46299976E-02  -3.30734125E-04
   8.48399997E-02  -3.17508704E-04
   8.50500017E-02  -3.01984604E-04
   8.52599964E-02  -2.84203066E-04
   8.54699984E-02  -2.64221686E-04
   8.56800005E-02  -2.42114693E-04
   8.58900025E-02  -2.17972614E-04
   8.60999972E-02  -1.91902087E-04
   8.63099992E-02  -1.64025332E-04
   8.65200013E-02  -1.34479764E-04
   8.67300034E-02  -1.03417144E-04
   8.69399980E-02  -7.10028617E-05
   8.71500000E-02  -3.74149640E-05
   8.73600021E-02  -2.84314729E-06
   8.75699967E-02   3.25124493E-05
   8.77799988E-02   6.84424886E-05
   8.79900008E-02   1.04729814E-04
   8.82000029E-02   1.41150915E-04
   8.84099975E-02   1.77477457E-04
   8.86199996E-02   2.13477848E-04
   8.88300017E-02   2.48918950E-04
   8.90400037E-02   2.83567730E-04
   8.92499983E-02   3.17192986E-04
   8.94600004E-02   3.49567126E-04
   8.96700025E-02   3.80467856E-04
   8.98799971E-02   4.09679924E-04
   9.00899991E-02   4.36996779E-04
   9.03000012E-02   4.62222320E-04
   9.05100033E-02   4.85172321E-04
   9.07199979E-02   5.05676027E-04
   9.09299999E-02   5.23577619E-04
   9.11400020E-02   5.38737397E-04
   9.13499966E-02   5.51033183E-04
   9.15599987E-02   5.60361193E-04
   9.17700008E-02   5.66637202E-04
   9.19800028E-02   5.69797005E-04
   9.21899974E-02   5.69797528E-04
   9.23999995E-02   5.66616771E-04
   9.26100016E-02   5.60254441E-04
   9.28200036E-02   5.50732075E-04
   9.30299982E-02   5.38092805E-04
   9.32400003E-02   5.22401300E-04
   9.34500024E-02   5.03743242E-04
   9.36599970E-02   4.82224743E-04
   9.38699991E-02   4.57971677E-04
   9.40800011E-02   4.31128574E-04
   9.42900032E-02   4.01857629E-04
   9.44999978E-02   3.70337395E-04
   9.47099999E-02   3.36761441E-04
   9.49200019E-02   3.01336695E-04
   9.51299965E-02   2.64281960E-04
   9.53399986E-02   2.25825977E-04
   9.55500007E-02   1.86205623E-04
   9.57600027E-02   1.45663987E-04
   9.59699973E-02   1.04448336E-04
   9.61799994E-02   6.28081543E-05
   9.63900015E-02   2.09929894E-05
   9.66000035E-02  -2.07495414E-05
   9.68099982E-02  -6.21758445E-05
   9.70200002E-02  -1.03048340E-04
   9.72300023E-02  -1.43137426E-04
   9.74399969E-02  -1.82223361E-04
   9.76499990E-02  -2.20098053E-04
   9.78600010E-02  -2.56566709E-04
   9.80700031E-02  -2.91449454E-04
   9.82799977E-02  -3.24582710E-04
   9.84899998E-02  -3.55820375E-04
   9.87000018E-02  -3.85035150E-04
   9.89099964E-02  -4.12119087E-04
   9.91199985E-02  -4.36984526E-04
   9.93300006E-02  -4.59564471E-04
   9.95400026E-02  -4.79812996E-04
   9.97499973E-02  -4.97705303E-04
   9.99599993E-02  -5.13237494E-04
  0.100170001      -5.26426244E-04
  0.100380003      -5.37308340E-04
  0.100589998      -5.45939838E-04
  0.100800000      -5.52394951E-04
  0.101010002      -5.56764891E-04
  0.101219997      -5.59156877E-04
  0.101429999      -5.59691980E-04
  0.101640001      -5.58503962E-04
  0.101850003      -5.55737002E-04
  0.102059998      -5.51544130E-04
  0.102270000      -5.46084659E-04
  0.102480002      -5.39522560E-04
  0.102689996      -5.32023667E-04
  0.102899998      -5.23753988E-04
  0.103110000      -5.14876854E-04
  0.103320003      -5.05551056E-04
  0.103529997      -4.95928340E-04
  0.103739999      -4.86151315E-04
  0.103950001      -4.76351241E-04
  0.104160003      -4.66646103E-04
  0.104369998      -4.57138696E-04
  0.104580000      -4.47914790E-04
  0.104790002      -4.39041673E-04
  0.104999997      -4.30566666E-04
  0.105209999      -4.22516110E-04
  0.105420001      -4.14894195E-04
  0.105630003      -4.07682441E-04
  0.105839998      -4.00839170E-04
  0.106050000      -3.94299306E-04
  0.106260002      -3.87974520E-04
  0.106470004      -3.81753431E-04
  0.106679998      -3.75502510E-04
  0.106890000      -3.69066780E-04
  0.107100002      -3.62271094E-04
  0.107309997      -3.54921649E-04
  0.107519999      -3.46807705E-04
  0.107730001      -3.37703503E-04
  0.107940003      -3.27370712E-04
  0.108149998      -3.15560494E-04
  0.108360000      -3.02016619E-04
  0.108570002      -2.86478113E-04
  0.108779997      -2.68682255E-04
  0.108989999      -2.48367694E-04
  0.109200001      -2.25277719E-04
  0.109410003      -1.99163813E-04
  0.109619997      -1.69788720E-04
  0.109830000      -1.36930044E-04
  0.110040002      -1.00383579E-04
  0.110250004      -5.99667728E-05
  0.110459998      -1.55219313E-05
  0.110670000       3.30807597E-05
  0.110880002       8.59398788E-05
  0.111089997       1.43120182E-04
  0.111299999       2.04649885E-04
  0.111510001       2.70518096E-04
  0.111720003       3.40672792E-04
  0.111929998       4.15019167E-04
  0.112140000       4.93417669E-04
  0.112350002       5.75682905E-04
  0.112559997       6.61582919E-04
  0.112769999       7.50838546E-04
  0.112980001       8.43123300E-04
  0.113190003       9.38063720E-04
  0.113399997       1.03523990E-03
  0.113609999       1.13418687E-03
  0.113820001       1.23439590E-03
  0.114030004       1.33531610E-03
  0.114239998       1.43635739E-03
  0.114450000       1.53689296E-03
  0.114660002       1.63626182E-03
  0.114869997       1.73377269E-03
  0.115079999       1.82870810E-03
  0.115290001       1.92032789E-03
  0.115500003       2.00787419E-03
  0.115709998       2.09057517E-03
  0.115920000       2.16765096E-03
  0.116130002       2.23831832E-03
  0.116339996       2.30179611E-03
  0.116549999       2.35731085E-03
  0.116760001       2.40410166E-03
  0.116970003       2.44142674E-03
  0.117179997       2.46856804E-03
  0.117389999       2.48483778E-03
  0.117600001       2.48958380E-03
  0.117810003       2.48219445E-03
  0.118019998       2.46210489E-03
  0.118230000       2.42880126E-03
  0.118440002       2.38182629E-03
  0.118649997       2.32078391E-03
  0.118859999       2.24534306E-03
  0.119070001       2.15524272E-03
  0.119280003       2.05029477E-03
  0.119489998       1.93038804E-03
  0.119700000       1.79549085E-03
  0.119910002       1.64565363E-03
  0.120119996       1.48101069E-03
  0.120329998       1.30178221E-03
  0.120540000       1.10827503E-03
  0.120750003       9.00883402E-04
  0.120959997       6.80088822E-04
  0.121169999       4.46459802E-04
  0.121380001       2.00650829E-04
  0.121590003      -5.65990194E-05
  0.121799998      -3.24468041E-04
  0.122010000      -6.02054934E-04
  0.122220002      -8.88381095E-04
  0.122429997      -1.18239422E-03
  0.122639999      -1.48297276E-03
  0.122850001      -1.78892934E-03
  0.123060003      -2.09901645E-03
  0.123269998      -2.41193129E-03
  0.123480000      -2.72632064E-03
  0.123690002      -3.04078823E-03
  0.123899996      -3.35389888E-03
  0.124109998      -3.66418669E-03
  0.124320000      -3.97016061E-03
  0.124530002      -4.27031284E-03
  0.124739997      -4.56312299E-03
  0.124949999      -4.84706787E-03
  0.125159994      -5.12062805E-03
  0.125369996      -5.38229477E-03
  0.125579998      -5.63057698E-03
  0.125790000      -5.86400926E-03
  0.126000002      -6.08115830E-03
  0.126210004      -6.28063222E-03
  0.126420006      -6.46108389E-03
  0.126629993      -6.62121968E-03
  0.126839995      -6.75980793E-03
  0.127049997      -6.87568216E-03
  0.127260000      -6.96774852E-03
  0.127470002      -7.03499280E-03
  0.127680004      -7.07648415E-03
  0.127890006      -7.09138112E-03
  0.128099993      -7.07893772E-03
  0.128309995      -7.03850528E-03
  0.128519997      -6.96953898E-03
  0.128729999      -6.87159970E-03
  0.128940001      -6.74435962E-03
  0.129150003      -6.58760360E-03
  0.129360005      -6.40123058E-03
  0.129570007      -6.18525827E-03
  0.129779994      -5.93982264E-03
  0.129989997      -5.66517934E-03
  0.130199999      -5.36170416E-03
  0.130410001      -5.02989441E-03
  0.130620003      -4.67036711E-03
  0.130830005      -4.28385986E-03
  0.131040007      -3.87122761E-03
  0.131249994      -3.43344267E-03
  0.131459996      -2.97159143E-03
  0.131669998      -2.48687295E-03
  0.131880000      -1.98059459E-03
  0.132090002      -1.45416986E-03
  0.132300004      -9.09113907E-04
  0.132510006      -3.47040303E-04
  0.132719994       2.30345191E-04
  0.132929996       8.21248279E-04
  0.133139998       1.42379175E-03
  0.133350000       2.03602132E-03
  0.133560002       2.65591126E-03
  0.133770004       3.28137144E-03
  0.133980006       3.91025282E-03
  0.134189993       4.54035588E-03
  0.134399995       5.16943494E-03
  0.134609997       5.79520920E-03
  0.134819999       6.41536806E-03
  0.135030001       7.02757807E-03
  0.135240003       7.62949279E-03
  0.135450006       8.21876153E-03
  0.135659993       8.79303552E-03
  0.135869995       9.34997480E-03
  0.136079997       9.88726225E-03
  0.136289999       1.04026087E-02
  0.136500001       1.08937602E-02
  0.136710003       1.13585079E-02
  0.136920005       1.17946975E-02
  0.137130007       1.22002363E-02
  0.137339994       1.25731044E-02
  0.137549996       1.29113588E-02
  0.137759998       1.32131446E-02
  0.137970001       1.34767052E-02
  0.138180003       1.37003837E-02
  0.138390005       1.38826361E-02
  0.138600007       1.40220383E-02
  0.138809994       1.41172893E-02
  0.139019996       1.41672222E-02
  0.139229998       1.41708096E-02
  0.139440000       1.41271707E-02
  0.139650002       1.40355742E-02
  0.139860004       1.38954474E-02
  0.140070006       1.37063758E-02
  0.140279993       1.34681156E-02
  0.140489995       1.31805902E-02
  0.140699998       1.28438985E-02
  0.140910000       1.24583133E-02
  0.141120002       1.20242871E-02
  0.141330004       1.15424572E-02
  0.141540006       1.10136364E-02
  0.141749993       1.04388241E-02
  0.141959995       9.81920213E-03
  0.142169997       9.15613305E-03
  0.142379999       8.45116004E-03
  0.142590001       7.70600373E-03
  0.142800003       6.92256307E-03
  0.143010005       6.10290794E-03
  0.143220007       5.24927815E-03
  0.143429995       4.36407793E-03
  0.143639997       3.44987167E-03
  0.143849999       2.50937697E-03
  0.144060001       1.54545985E-03
  0.144270003       5.61127265E-04
  0.144480005      -4.40480333E-04
  0.144690007      -1.45609572E-03
  0.144899994      -2.48233345E-03
  0.145109996      -3.51569918E-03
  0.145319998      -4.55259765E-03
  0.145530000      -5.58934268E-03
  0.145740002      -6.62216544E-03
  0.145950004      -7.64722470E-03
  0.146160007      -8.66061728E-03
  0.146369994      -9.65839066E-03
  0.146579996      -1.06365494E-02
  0.146789998      -1.15910657E-02
  0.147000000      -1.25178918E-02
  0.147210002      -1.34129710E-02
  0.147420004      -1.42722446E-02
  0.147630006      -1.50916632E-02
  0.147839993      -1.58671960E-02
  0.148049995      -1.65948439E-02
  0.148259997      -1.72706470E-02
  0.148469999      -1.78906880E-02
  0.148680001      -1.84511114E-02
  0.148890004      -1.89481247E-02
  0.149100006      -1.93780046E-02
  0.149309993      -1.97371077E-02
  0.149519995      -2.00218745E-02
  0.149729997      -2.02288404E-02
  0.149939999      -2.03546379E-02
  0.150150001      -2.03960016E-02
  0.150360003      -2.03497726E-02
  0.150570005      -2.02129018E-02
  0.150780007      -1.99824516E-02
  0.150989994      -1.96556039E-02
  0.151199996      -1.92296505E-02
  0.151409999      -1.87020097E-02
  0.151620001      -1.80702098E-02
  0.151830003      -1.73319001E-02
  0.152040005      -1.64848510E-02
  0.152250007      -1.55269429E-02
  0.152459994      -1.44561753E-02
  0.152669996      -1.32706529E-02
  0.152879998      -1.19685875E-02
  0.153090000      -1.05482955E-02
  0.153300002      -9.00819432E-03
  0.153510004      -7.34679401E-03
  0.153720006      -5.56269521E-03
  0.153929994      -3.65458289E-03
  0.154139996      -1.62122236E-03
  0.154349998       5.38546534E-04
  0.154560000       2.82581965E-03
  0.154770002       5.24163013E-03
  0.154980004       7.78695242E-03
  0.155190006       1.04627162E-02
  0.155399993       1.32698044E-02
  0.155609995       1.62090641E-02
  0.155819997       1.92813091E-02
  0.156029999       2.24873312E-02
  0.156240001       2.58278958E-02
  0.156450003       2.93037556E-02
  0.156660005       3.29156481E-02
  0.156869993       3.66643071E-02
  0.157079995       4.05504629E-02
  0.157289997       4.45748456E-02
  0.157499999       4.87381890E-02
  0.157710001       5.30412234E-02
  0.157920003       5.74846976E-02
  0.158130005       6.20693639E-02
  0.158340007       6.67959824E-02
  0.158549994       7.16653168E-02
  0.158759996       7.66781420E-02
  0.158969998       8.18352476E-02
  0.159180000       8.71374086E-02
  0.159390002       9.25854295E-02
  0.159600005       9.81800780E-02
  0.159810007      0.103922136    
  0.160019994      0.109812379    
  0.160229996      0.115851559    
  0.160439998      0.122040421    
  0.160650000      0.128379658    
  0.160860002      0.134869963    
  0.161070004      0.141511947    
  0.161280006      0.148306221    
  0.161489993      0.155253321    
  0.161699995      0.162353724    
  0.161909997      0.169607833    
  0.162120000      0.177015975    
  0.162330002      0.184578404    
  0.162540004      0.192295268    
  0.162750006      0.200166628    
  0.162959993      0.208192408    
  0.163169995      0.216372415    
  0.163379997      0.224706367    
  0.163589999      0.233193830    
  0.163800001      0.241834193    
  0.164010003      0.250626802    
  0.164220005      0.259570777    
  0.164430007      0.268665016    
  0.164639995      0.277908355    
  0.164849997      0.287299484    
  0.165059999      0.296836853    
  0.165270001      0.306518704    
  0.165480003      0.316343218    
  0.165690005      0.326308310    
  0.165900007      0.336411744    
  0.166109994      0.346651137    
  0.166319996      0.357023895    
  0.166529998      0.367527246    
  0.166740000      0.378158242    
  0.166950002      0.388913810    
  0.167160004      0.399790704    
  0.167370006      0.410785526    
  0.167579994      0.421894729    
  0.167789996      0.433114558    
  0.167999998      0.444441199    
  0.168210000      0.455870688    
  0.168420002      0.467398942    
  0.168630004      0.479021877    
  0.168840006      0.490735143    
  0.169049993      0.502534449    
  0.169259995      0.514415443    
  0.169469997      0.526373565    
  0.169679999      0.538404405    
  0.169890001      0.550503492    
  0.170100003      0.562666237    
  0.170310006      0.574888170    
  0.170519993      0.587164819    
  0.170729995      0.599491715    
  0.170939997      0.611864448    
  0.171149999      0.624278605    
  0.171360001      0.636730015    
  0.171570003      0.649214506    
  0.171780005      0.661728084    
  0.171990007      0.674266696    
  0.172199994      0.686826587    
  0.172409996      0.699404180    
  0.172619998      0.711995840    
  0.172830001      0.724598408    
  0.173040003      0.737208545    
  0.173250005      0.749823391    
  0.173460007      0.762440145    
  0.173669994      0.775056183    
  0.173879996      0.787669122    
  0.174089998      0.800276756    
  0.174300000      0.812877119    
  0.174510002      0.825468481    
  0.174720004      0.838049352    
  0.174930006      0.850618184    
  0.175139993      0.863174021    
  0.175349995      0.875715792    
  0.175559998      0.888242722    
  0.175770000      0.900754273    
  0.175980002      0.913250089    
  0.176190004      0.925729811    
  0.176400006      0.938193440    
  0.176609993      0.950641155    
  0.176819995      0.963072956    
  0.177029997      0.975489199    
  0.177239999      0.987890422    
  0.177450001       1.00027704    
  0.177660003       1.01264966    
  0.177870005       1.02500892    
  0.178080007       1.03735554    
  0.178289995       1.04969013    
  0.178499997       1.06201351    
  0.178709999       1.07432616    
  0.178920001       1.08662891    
  0.179130003       1.09892225    
  0.179340005       1.11120677    
  0.179550007       1.12348294    
  0.179759994       1.13575089    