   0.00000000       0.00000000    
   2.09999998E-04   0.00000000    
   4.19999997E-04   0.00000000    
   6.30000024E-04   0.00000000    
   8.39999993E-04   1.40150536E-20
   1.04999996E-03   1.44542290E-19
   1.26000005E-03   8.04466078E-19
   1.47000002E-03   3.22134881E-18
   1.67999999E-03   1.04108199E-17
   1.88999996E-03   2.88573570E-17
   2.09999993E-03   7.11915707E-17
   2.30999989E-03   1.60200321E-16
   2.52000010E-03   3.34541274E-16
   2.73000007E-03   6.56560437E-16
   2.94000003E-03   1.22262821E-15
   3.15000000E-03   2.17634570E-15
   3.35999997E-03   3.72502517E-15
   3.56999994E-03   6.15963206E-15
   3.77999991E-03   9.87844297E-15
   3.99000011E-03   1.54144462E-14
   4.19999985E-03   2.34663803E-14
   4.41000005E-03   3.49330380E-14
   4.61999979E-03   5.09503735E-14
   4.82999999E-03   7.29298688E-14
   5.04000019E-03   1.02598296E-13
   5.24999993E-03   1.42036746E-13
   5.46000013E-03   1.93715717E-13
   5.66999987E-03   2.60527277E-13
   5.88000007E-03   3.45808858E-13
   6.08999981E-03   4.53355777E-13
   6.30000001E-03   5.87423339E-13
   6.51000021E-03   7.52708930E-13
   6.71999995E-03   9.54315077E-13
   6.93000015E-03   1.19768919E-12
   7.13999989E-03   1.48853477E-12
   7.35000009E-03   1.83269263E-12
   7.55999982E-03   2.23598939E-12
   7.77000003E-03   2.70403708E-12
   7.98000023E-03   3.24200671E-12
   8.19000043E-03   3.85435564E-12
   8.39999970E-03   4.54450757E-12
   8.60999990E-03   5.31449667E-12
   8.82000010E-03   6.16457189E-12
   9.03000031E-03   7.09276171E-12
   9.23999958E-03   8.09439928E-12
   9.44999978E-03   9.16161938E-12
   9.65999998E-03   1.02828692E-11
   9.87000018E-03   1.14423514E-11
   1.00800004E-02   1.26195729E-11
   1.02899997E-02   1.37888104E-11
   1.04999999E-02   1.49186306E-11
   1.07100001E-02   1.59715158E-11
   1.09200003E-02   1.69034856E-11
   1.11300005E-02   1.76639241E-11
   1.13399997E-02   1.81954313E-11
   1.15499999E-02   1.84337563E-11
   1.17600001E-02   1.83081380E-11
   1.19700003E-02   1.77416675E-11
   1.21799996E-02   1.66516245E-11
   1.23899998E-02   1.49505859E-11
   1.26000000E-02   1.25474934E-11
   1.28100002E-02   9.34874574E-12
   1.30200004E-02   5.25985895E-12
   1.32299997E-02   1.87446033E-13
   1.34399999E-02  -5.95864330E-12
   1.36500001E-02  -1.32629316E-11
   1.38600003E-02  -2.18013906E-11
   1.40699996E-02  -3.16385633E-11
   1.42799998E-02  -4.28245321E-11
   1.44900000E-02  -5.53911778E-11
   1.47000002E-02  -6.93487143E-11
   1.49100004E-02  -8.46821571E-11
   1.51199996E-02  -1.01347444E-10
   1.53299998E-02  -1.19267832E-10
   1.55400001E-02  -1.38330597E-10
   1.57500003E-02  -1.58383445E-10
   1.59600005E-02  -1.79231019E-10
   1.61700007E-02  -2.00632649E-10
   1.63800009E-02  -2.22300539E-10
   1.65899992E-02  -2.43897735E-10
   1.67999994E-02  -2.65037159E-10
   1.70099996E-02  -2.85281937E-10
   1.72199998E-02  -3.04146319E-10
   1.74300000E-02  -3.21097510E-10
   1.76400002E-02  -3.35558775E-10
   1.78500004E-02  -3.46913914E-10
   1.80600006E-02  -3.54512836E-10
   1.82700008E-02  -3.57678553E-10
   1.84799992E-02  -3.55715152E-10
   1.86899994E-02  -3.47917833E-10
   1.88999996E-02  -3.33583883E-10
   1.91099998E-02  -3.12024906E-10
   1.93200000E-02  -2.82580737E-10
   1.95300002E-02  -2.44634063E-10
   1.97400004E-02  -1.97626263E-10
   1.99500006E-02  -1.41074236E-10
   2.01600008E-02  -7.45875028E-11
   2.03699991E-02   2.11382713E-12
   2.05799993E-02   8.91812874E-11
   2.07899995E-02   1.86620525E-10
   2.09999997E-02   2.94273467E-10
   2.12099999E-02   4.11802953E-10
   2.14200001E-02   5.38676936E-10
   2.16300003E-02   6.74155010E-10
   2.18400005E-02   8.17277579E-10
   2.20500007E-02   9.66855374E-10
   2.22600009E-02   1.12146248E-09
   2.24699993E-02   1.27943844E-09
   2.26799995E-02   1.43888490E-09
   2.28899997E-02   1.59766977E-09
   2.30999999E-02   1.75343906E-09
   2.33100001E-02   1.90363014E-09
   2.35200003E-02   2.04549067E-09
   2.37300005E-02   2.17610041E-09
   2.39400007E-02   2.29240316E-09
   2.41500009E-02   2.39124032E-09
   2.43599992E-02   2.46938958E-09
   2.45699994E-02   2.52361265E-09
   2.47799996E-02   2.55069987E-09
   2.49899998E-02   2.54753063E-09
   2.52000000E-02   2.51112930E-09
   2.54100002E-02   2.43872256E-09
   2.56200004E-02   2.32781017E-09
   2.58300006E-02   2.17622675E-09
   2.60400008E-02   1.98221173E-09
   2.62499992E-02   1.74448467E-09
   2.64599994E-02   1.46230683E-09
   2.66699996E-02   1.13553700E-09
   2.68799998E-02   7.64700081E-10
   2.70900000E-02   3.51050217E-10
   2.73000002E-02  -1.03379229E-10
   2.75100004E-02  -5.95733074E-10
   2.77200006E-02  -1.12229581E-09
   2.79300008E-02  -1.67847458E-09
   2.81399991E-02  -2.25877916E-09
   2.83499993E-02  -2.85681656E-09
   2.85599995E-02  -3.46531093E-09
   2.87699997E-02  -4.07612166E-09
   2.89799999E-02  -4.68028682E-09
   2.91900001E-02  -5.26809085E-09
   2.94000003E-02  -5.82912962E-09
   2.96100006E-02  -6.35240482E-09
   2.98200008E-02  -6.82644474E-09
   3.00299991E-02  -7.23942417E-09
   3.02399993E-02  -7.57930874E-09
   3.04499995E-02  -7.83402054E-09
   3.06599997E-02  -7.99161537E-09
   3.08699999E-02  -8.04047229E-09
   3.10800001E-02  -7.96949706E-09
   3.12899984E-02  -7.76833797E-09
   3.15000005E-02  -7.42760564E-09
   3.17099988E-02  -6.93911018E-09
   3.19200009E-02  -6.29608277E-09
   3.21299993E-02  -5.49340928E-09
   3.23400013E-02  -4.52785764E-09
   3.25499997E-02  -3.39830630E-09
   3.27600017E-02  -2.10595519E-09
   3.29700001E-02  -6.54501675E-10
   3.31799984E-02   9.49660683E-10
   3.33900005E-02   2.69728484E-09
   3.35999988E-02   4.57617633E-09
   3.38100009E-02   6.57107480E-09
   3.40199992E-02   8.66355787E-09
   3.42300013E-02   1.08320641E-08
   3.44399996E-02   1.30519000E-08
   3.46500017E-02   1.52952868E-08
   3.48600000E-02   1.75314998E-08
   3.50699984E-02   1.97269827E-08
   3.52800004E-02   2.18455725E-08
   3.54899988E-02   2.38487701E-08
   3.57000008E-02   2.56960728E-08
   3.59099992E-02   2.73453082E-08
   3.61200012E-02   2.87530533E-08
   3.63299996E-02   2.98751495E-08
   3.65400016E-02   3.06671595E-08
   3.67500000E-02   3.10849906E-08
   3.69599983E-02   3.10854773E-08
   3.71700004E-02   3.06269783E-08
   3.73799987E-02   2.96701099E-08
   3.75900008E-02   2.81784658E-08
   3.77999991E-02   2.61192135E-08
   3.80100012E-02   2.34639028E-08
   3.82199995E-02   2.01892725E-08
   3.84300016E-02   1.62777987E-08
   3.86399999E-02   1.17184840E-08
   3.88499983E-02   6.50757181E-09
   3.90600003E-02   6.49125254E-10
   3.92699987E-02  -5.84434812E-09
   3.94800007E-02  -1.29514266E-08
   3.96899991E-02  -2.06412469E-08
   3.99000011E-02  -2.88731101E-08
   4.01099995E-02  -3.75962443E-08
   4.03200015E-02  -4.67495482E-08
   4.05299999E-02  -5.62614844E-08
   4.07399982E-02  -6.60501556E-08
   4.09500003E-02  -7.60234684E-08
   4.11599986E-02  -8.60793250E-08
   4.13700007E-02  -9.61060849E-08
   4.15799990E-02  -1.05983133E-07
   4.17900011E-02  -1.15581479E-07
   4.19999994E-02  -1.24764654E-07
   4.22100015E-02  -1.33389690E-07
   4.24199998E-02  -1.41308234E-07
   4.26299982E-02  -1.48367732E-07
   4.28400002E-02  -1.54412831E-07
   4.30499986E-02  -1.59286955E-07
   4.32600006E-02  -1.62833828E-07
   4.34699990E-02  -1.64899234E-07
   4.36800011E-02  -1.65332821E-07
   4.38899994E-02  -1.63989981E-07
   4.41000015E-02  -1.60733791E-07
   4.43099998E-02  -1.55437050E-07
   4.45200019E-02  -1.47984281E-07
   4.47300002E-02  -1.38273620E-07
   4.49399985E-02  -1.26219007E-07
   4.51500006E-02  -1.11752136E-07
   4.53599989E-02  -9.48242374E-08
   4.55700010E-02  -7.54080105E-08
   4.57799993E-02  -5.34993561E-08
   4.59900014E-02  -2.91190165E-08
   4.61999997E-02  -2.31392572E-09
   4.64100018E-02   2.68416400E-08
   4.66200002E-02   5.82447228E-08
   4.68299985E-02   9.17628213E-08
   4.70400006E-02   1.27233434E-07
   4.72499989E-02   1.64463657E-07
   4.74600010E-02   2.03230030E-07
   4.76699993E-02   2.43278805E-07
   4.78800014E-02   2.84326205E-07
   4.80899997E-02   3.26059450E-07
   4.83000018E-02   3.68137819E-07
   4.85100001E-02   4.10194019E-07
   4.87199984E-02   4.51836002E-07
   4.89300005E-02   4.92648667E-07
   4.91399989E-02   5.32196623E-07
   4.93500009E-02   5.70027282E-07
   4.95599993E-02   6.05672938E-07
   4.97700013E-02   6.38654512E-07
   4.99799997E-02   6.68485313E-07
   5.01900017E-02   6.94674270E-07
   5.04000001E-02   7.16730767E-07
   5.06099984E-02   7.34168339E-07
   5.08200005E-02   7.46509272E-07
   5.10299988E-02   7.53289157E-07
   5.12400009E-02   7.54061773E-07
   5.14499992E-02   7.48404034E-07
   5.16600013E-02   7.35920139E-07
   5.18699996E-02   7.16246802E-07
   5.20800017E-02   6.89058538E-07
   5.22900000E-02   6.54071812E-07
   5.24999984E-02   6.11050041E-07
   5.27100004E-02   5.59808370E-07
   5.29199988E-02   5.00217482E-07
   5.31300008E-02   4.32208253E-07
   5.33399992E-02   3.55774972E-07
   5.35500012E-02   2.70979342E-07
   5.37599996E-02   1.77953936E-07
   5.39700016E-02   7.69044206E-08
   5.41800000E-02  -3.18878506E-08
   5.43899983E-02  -1.48063634E-07
   5.46000004E-02  -2.71184291E-07
   5.48099987E-02  -4.00731011E-07
   5.50200008E-02  -5.36104722E-07
   5.52299991E-02  -6.76625859E-07
   5.54400012E-02  -8.21534456E-07
   5.56499995E-02  -9.69992584E-07
   5.58600016E-02  -1.12108569E-06
   5.60699999E-02  -1.27382532E-06
   5.62799983E-02  -1.42715248E-06
   5.64900003E-02  -1.57994111E-06
   5.66999987E-02  -1.73100295E-06
   5.69100007E-02  -1.87909222E-06
   5.71199991E-02  -2.02291244E-06
   5.73300011E-02  -2.16112153E-06
   5.75399995E-02  -2.29234047E-06
   5.77500015E-02  -2.41515932E-06
   5.79599999E-02  -2.52814675E-06
   5.81699982E-02  -2.62985782E-06
   5.83800003E-02  -2.71884392E-06
   5.85899986E-02  -2.79366282E-06
   5.88000007E-02  -2.85288911E-06
   5.90099990E-02  -2.89512354E-06
   5.92200011E-02  -2.91900619E-06
   5.94299994E-02  -2.92322602E-06
   5.96400015E-02  -2.90653475E-06
   5.98499998E-02  -2.86775708E-06
   6.00599982E-02  -2.80580389E-06
   6.02700002E-02  -2.71968293E-06
   6.04799986E-02  -2.60851402E-06
   6.06900007E-02  -2.47153889E-06
   6.08999990E-02  -2.30813339E-06
   6.11100011E-02  -2.11782162E-06
   6.13199994E-02  -1.90028493E-06
   6.15300015E-02  -1.65537506E-06
   6.17399998E-02  -1.38312544E-06
   6.19499981E-02  -1.08375855E-06
   6.21600002E-02  -7.57699354E-07
   6.23699985E-02  -4.05583023E-07
   6.25799969E-02  -2.82614856E-08
   6.27899989E-02   3.73188016E-07
   6.30000010E-02   7.97457290E-07
   6.32100031E-02   1.24300220E-06
   6.34199977E-02   1.70803798E-06
   6.36299998E-02   2.19053777E-06
   6.38400018E-02   2.68823396E-06
   6.40499964E-02   3.19861692E-06
   6.42599985E-02   3.71893566E-06
   6.44700006E-02   4.24620566E-06
   6.46800026E-02   4.77721642E-06
   6.48899972E-02   5.30853367E-06
   6.50999993E-02   5.83651263E-06
   6.53100014E-02   6.35731294E-06
   6.55200034E-02   6.86691283E-06
   6.57299981E-02   7.36112179E-06
   6.59400001E-02   7.83559972E-06
   6.61500022E-02   8.28588509E-06
   6.63599968E-02   8.70741042E-06
   6.65699989E-02   9.09553546E-06
   6.67800009E-02   9.44556905E-06
   6.69900030E-02   9.75280182E-06
   6.71999976E-02   1.00125353E-05
   6.74099997E-02   1.02201229E-05
   6.76200017E-02   1.03710008E-05
   6.78299963E-02   1.04607234E-05
   6.80399984E-02   1.04850078E-05
   6.82500005E-02   1.04397732E-05
   6.84600025E-02   1.03211787E-05
   6.86699972E-02   1.01256692E-05
   6.88799992E-02   9.85001770E-06
   6.90900013E-02   9.49136574E-06
   6.93000033E-02   9.04726949E-06
   6.95099980E-02   8.51574168E-06
   6.97200000E-02   7.89528985E-06
   6.99300021E-02   7.18496358E-06
   7.01399967E-02   6.38438951E-06
   7.03499988E-02   5.49380593E-06
   7.05600008E-02   4.51410278E-06
   7.07700029E-02   3.44685031E-06
   7.09799975E-02   2.29432862E-06
   7.11899996E-02   1.05955155E-06
   7.14000016E-02  -2.53712784E-07
   7.16100037E-02  -1.64092478E-06
   7.18199983E-02  -3.09676329E-06
   7.20300004E-02  -4.61511854E-06
   7.22400025E-02  -6.18909326E-06
   7.24499971E-02  -7.81100880E-06
   7.26599991E-02  -9.47241642E-06
   7.28700012E-02  -1.11641166E-05
   7.30800033E-02  -1.28761894E-05
   7.32899979E-02  -1.45980175E-05
   7.34999999E-02  -1.63183358E-05
   7.37100020E-02  -1.80252755E-05
   7.39199966E-02  -1.97064255E-05
   7.41299987E-02  -2.13488802E-05
   7.43400007E-02  -2.29393208E-05
   7.45500028E-02  -2.44640887E-05
   7.47599974E-02  -2.59092685E-05
   7.49699995E-02  -2.72607758E-05
   7.51800016E-02  -2.85044607E-05
   7.53900036E-02  -2.96262006E-05
   7.55999982E-02  -3.06120055E-05
   7.58100003E-02  -3.14481331E-05
   7.60200024E-02  -3.21212065E-05
   7.62299970E-02  -3.26183290E-05
   7.64399990E-02  -3.29272116E-05
   7.66500011E-02  -3.30362709E-05
   7.68600032E-02  -3.29347749E-05
   7.70699978E-02  -3.26129593E-05
   7.72799999E-02  -3.20621293E-05
   7.74900019E-02  -3.12748052E-05
   7.76999965E-02  -3.02448079E-05
   7.79099986E-02  -2.89673953E-05
   7.81200007E-02  -2.74393387E-05
   7.83300027E-02  -2.56590265E-05
   7.85399973E-02  -2.36265678E-05
   7.87499994E-02  -2.13438452E-05
   7.89600015E-02  -1.88145877E-05
   7.91700035E-02  -1.60444324E-05
   7.93799981E-02  -1.30409753E-05
   7.95900002E-02  -9.81378798E-06
   7.98000023E-02  -6.37443327E-06
   8.00099969E-02  -2.73647402E-06
   8.02199990E-02   1.08454174E-06
   8.04300010E-02   5.07111417E-06
   8.06400031E-02   9.20383627E-06
   8.08499977E-02   1.34614547E-05
   8.10599998E-02   1.78209611E-05
   8.12700018E-02   2.22576873E-05
   8.14799964E-02   2.67454143E-05
   8.16899985E-02   3.12564953E-05
   8.19000006E-02   3.57620265E-05
   8.21100026E-02   4.02319893E-05
   8.23199973E-02   4.46354352E-05
   8.25299993E-02   4.89406775E-05
   8.27400014E-02   5.31155092E-05
   8.29500034E-02   5.71273886E-05
   8.31599981E-02   6.09436865E-05
   8.33700001E-02   6.45319378E-05
   8.35800022E-02   6.78600481E-05
   8.37899968E-02   7.08965817E-05
   8.39999989E-02   7.36109869E-05
   8.42100009E-02   7.59738614E-05
   8.44200030E-02   7.79572074E-05
   8.46299976E-02   7.95346641E-05
   8.48399997E-02   8.06818061E-05
   8.50500017E-02   8.13763181E-05
   8.52599964E-02   8.15982930E-05
   8.54699984E-02   8.13303996E-05
   8.56800005E-02   8.05581294E-05
   8.58900025E-02   7.92699575E-05
   8.60999972E-02   7.74575528E-05
   8.63099992E-02   7.51159096E-05
   8.65200013E-02   7.22434925E-05
   8.67300034E-02   6.88423534E-05
   8.69399980E-02   6.49182184E-05
   8.71500000E-02   6.04805391E-05
   8.73600021E-02   5.55425468E-05
   8.75699967E-02   5.01212526E-05
   8.77799988E-02   4.42374185E-05
   8.79900008E-02   3.79155172E-05
   8.82000029E-02   3.11836448E-05
   8.84099975E-02   2.40734153E-05
   8.86199996E-02   1.66198115E-05
   8.88300017E-02   8.86101043E-06
   8.90400037E-02   8.38204983E-07
   8.92499983E-02  -7.40464156E-06
   8.94600004E-02  -1.58210423E-05
   8.96700025E-02  -2.43622726E-05
   8.98799971E-02  -3.29776885E-05
   9.00899991E-02  -4.16150287E-05
   9.03000012E-02  -5.02207586E-05
   9.05100033E-02  -5.87404575E-05
   9.07199979E-02  -6.71192029E-05
   9.09299999E-02  -7.53019267E-05
   9.11400020E-02  -8.32338046E-05
   9.13499966E-02  -9.08607108E-05
   9.15599987E-02  -9.81296107E-05
   9.17700008E-02  -1.04988925E-04
   9.19800028E-02  -1.11388974E-04
   9.21899974E-02  -1.17282398E-04
   9.23999995E-02  -1.22624508E-04
   9.26100016E-02  -1.27373627E-04
   9.28200036E-02  -1.31491543E-04
   9.30299982E-02  -1.34943708E-04
   9.32400003E-02  -1.37699652E-04
   9.34500024E-02  -1.39733238E-04
   9.36599970E-02  -1.41022887E-04
   9.38699991E-02  -1.41551849E-04
   9.40800011E-02  -1.41308323E-04
   9.42900032E-02  -1.40285658E-04
   9.44999978E-02  -1.38482457E-04
   9.47099999E-02  -1.35902665E-04
   9.49200019E-02  -1.32555549E-04
   9.51299965E-02  -1.28455722E-04
   9.53399986E-02  -1.23623089E-04
   9.55500007E-02  -1.18082753E-04
   9.57600027E-02  -1.11864800E-04
   9.59699973E-02  -1.05004256E-04
   9.61799994E-02  -9.75407893E-05
   9.63900015E-02  -8.95184276E-05
   9.66000035E-02  -8.09852863E-05
   9.68099982E-02  -7.19932432E-05
   9.70200002E-02  -6.25975445E-05
   9.72300023E-02  -5.28563833E-05
   9.74399969E-02  -4.28305502E-05
   9.76499990E-02  -3.25829242E-05
   9.78600010E-02  -2.21780083E-05
   9.80700031E-02  -1.16814590E-05
   9.82799977E-02  -1.15958039E-06
   9.84899998E-02   9.32120383E-06
   9.87000018E-02   1.96948695E-05
   9.89099964E-02   2.98962859E-05
   9.91199985E-02   3.98617340E-05
   9.93300006E-02   4.95294044E-05
   9.95400026E-02   5.88398871E-05
   9.97499973E-02   6.77366479E-05
   9.99599993E-02   7.61664851E-05
  0.100170001       8.40799694E-05
  0.100380003       9.14317643E-05
  0.100589998       9.81810590E-05
  0.100800000       1.04291874E-04
  0.101010002       1.09733344E-04
  0.101219997       1.14479968E-04
  0.101429999       1.18511787E-04
  0.101640001       1.21814555E-04
  0.101850003       1.24379832E-04
  0.102059998       1.26205050E-04
  0.102270000       1.27293490E-04
  0.102480002       1.27654290E-04
  0.102689996       1.27302250E-04
  0.102899998       1.26257786E-04
  0.103110000       1.24546728E-04
  0.103320003       1.22199999E-04
  0.103529997       1.19253367E-04
  0.103739999       1.15747127E-04
  0.103950001       1.11725727E-04
  0.104160003       1.07237371E-04
  0.104369998       1.02333572E-04
  0.104580000       9.70686888E-05
  0.104790002       9.14993943E-05
  0.104999997       8.56842234E-05
  0.105209999       7.96830282E-05
  0.105420001       7.35564172E-05
  0.105630003       6.73652612E-05
  0.105839998       6.11700380E-05
  0.106050000       5.50303921E-05
  0.106260002       4.90046259E-05
  0.106470004       4.31490844E-05
  0.106679998       3.75177005E-05
  0.106890000       3.21615371E-05
  0.107100002       2.71283279E-05
  0.107309997       2.24620508E-05
  0.107519999       1.82025360E-05
  0.107730001       1.43851903E-05
  0.107940003       1.10406527E-05
  0.108149998       8.19446450E-06
  0.108360000       5.86699798E-06
  0.108570002       4.07322568E-06
  0.108779997       2.82263522E-06
  0.108989999       2.11930728E-06
  0.109200001       1.96171504E-06
  0.109410003       2.34278741E-06
  0.109619997       3.25016094E-06
  0.109830000       4.66622714E-06
  0.110040002       6.56835618E-06
  0.110250004       8.92922708E-06
  0.110459998       1.17170284E-05
  0.110670000       1.48958088E-05
  0.110880002       1.84258661E-05
  0.111089997       2.22641720E-05
  0.111299999       2.63647653E-05
  0.111510001       3.06792535E-05
  0.111720003       3.51573472E-05
  0.111929998       3.97471922E-05
  0.112140000       4.43959543E-05
  0.112350002       4.90503917E-05
  0.112559997       5.36573280E-05
  0.112769999       5.81640707E-05
  0.112980001       6.25190733E-05
  0.113190003       6.66722917E-05
  0.113399997       7.05755010E-05
  0.113609999       7.41829936E-05
  0.113820001       7.74518558E-05
  0.114030004       8.03423172E-05
  0.114239998       8.28180637E-05
  0.114450000       8.48464115E-05
  0.114660002       8.63986570E-05
  0.114869997       8.74503094E-05
  0.115079999       8.79810977E-05
  0.115290001       8.79750878E-05
  0.115500003       8.74207035E-05
  0.115709998       8.63106834E-05
  0.115920000       8.46420298E-05
  0.116130002       8.24158124E-05
  0.116339996       7.96369786E-05
  0.116549999       7.63141943E-05
  0.116760001       7.24594211E-05
  0.116970003       6.80876692E-05
  0.117179997       6.32166411E-05
  0.117389999       5.78662475E-05
  0.117600001       5.20581998E-05
  0.117810003       4.58155046E-05
  0.118019998       3.91619687E-05
  0.118230000       3.21217085E-05
  0.118440002       2.47187272E-05
  0.118649997       1.69762079E-05
  0.118859999       8.91602849E-06
  0.119070001       5.58379270E-07
  0.119280003      -8.07884317E-06
  0.119489998      -1.69805808E-05
  0.119700000      -2.61350033E-05
  0.119910002      -3.55338925E-05
  0.120119996      -4.51730775E-05
  0.120329998      -5.50527730E-05
  0.120540000      -6.51778028E-05
  0.120750003      -7.55579094E-05
  0.120959997      -8.62079251E-05
  0.121169999      -9.71478148E-05
  0.121380001      -1.08402768E-04
  0.121590003      -1.20003111E-04
  0.121799998      -1.31984241E-04
  0.122010000      -1.44386562E-04
  0.122220002      -1.57255054E-04
  0.122429997      -1.70639003E-04
  0.122639999      -1.84591627E-04
  0.122850001      -1.99169561E-04
  0.123060003      -2.14432468E-04
  0.123269998      -2.30442412E-04
  0.123480000      -2.47262913E-04
  0.123690002      -2.64958333E-04
  0.123899996      -2.83593195E-04
  0.124109998      -3.03231471E-04
  0.124320000      -3.23935470E-04
  0.124530002      -3.45764885E-04
  0.124739997      -3.68775713E-04
  0.124949999      -3.93019844E-04
  0.125159994      -4.18543583E-04
  0.125369996      -4.45386802E-04
  0.125579998      -4.73582069E-04
  0.125790000      -5.03153540E-04
  0.126000002      -5.34116058E-04
  0.126210004      -5.66474278E-04
  0.126420006      -6.00221509E-04
  0.126629993      -6.35339122E-04
  0.126839995      -6.71795919E-04
  0.127049997      -7.09547196E-04
  0.127260000      -7.48534163E-04
  0.127470002      -7.88683363E-04
  0.127680004      -8.29906377E-04
  0.127890006      -8.72099074E-04
  0.128099993      -9.15141834E-04
  0.128309995      -9.58899269E-04
  0.128519997      -1.00321975E-03
  0.128729999      -1.04793604E-03
  0.128940001      -1.09286502E-03
  0.129150003      -1.13780855E-03
  0.129360005      -1.18255347E-03
  0.129570007      -1.22687221E-03
  0.129779994      -1.27052388E-03
  0.129989997      -1.31325424E-03
  0.130199999      -1.35479739E-03
  0.130410001      -1.39487674E-03
  0.130620003      -1.43320626E-03
  0.130830005      -1.46949105E-03
  0.131040007      -1.50342961E-03
  0.131249994      -1.53471460E-03
  0.131459996      -1.56303449E-03
  0.131669998      -1.58807531E-03
  0.131880000      -1.60952331E-03
  0.132090002      -1.62706501E-03
  0.132300004      -1.64039026E-03
  0.132510006      -1.64919358E-03
  0.132719994      -1.65317592E-03
  0.132929996      -1.65204727E-03
  0.133139998      -1.64552778E-03
  0.133350000      -1.63335016E-03
  0.133560002      -1.61526119E-03
  0.133770004      -1.59102387E-03
  0.133980006      -1.56041922E-03
  0.134189993      -1.52324734E-03
  0.134399995      -1.47933012E-03
  0.134609997      -1.42851274E-03
  0.134819999      -1.37066399E-03
  0.135030001      -1.30567874E-03
  0.135240003      -1.23347878E-03
  0.135450006      -1.15401438E-03
  0.135659993      -1.06726505E-03
  0.135869995      -9.73240007E-04
  0.136079997      -8.71979806E-04
  0.136289999      -7.63556280E-04
  0.136500001      -6.48073095E-04
  0.136710003      -5.25665702E-04
  0.136920005      -3.96502059E-04
  0.137130007      -2.60782224E-04
  0.137339994      -1.18738062E-04
  0.137549996       2.93674075E-05
  0.137759998       1.83240380E-04
  0.137970001       3.42557090E-04
  0.138180003       5.06964512E-04
  0.138390005       6.76081807E-04
  0.138600007       8.49501521E-04
  0.138809994       1.02679129E-03
  0.139019996       1.20749499E-03
  0.139229998       1.39113446E-03
  0.139440000       1.57721154E-03
  0.139650002       1.76521007E-03
  0.139860004       1.95459789E-03
  0.140070006       2.14482914E-03
  0.140279993       2.33534677E-03
  0.140489995       2.52558407E-03
  0.140699998       2.71496759E-03
  0.140910000       2.90291943E-03
  0.141120002       3.08886031E-03
  0.141330004       3.27221141E-03
  0.141540006       3.45239672E-03
  0.141749993       3.62884696E-03
  0.141959995       3.80100007E-03
  0.142169997       3.96830495E-03
  0.142379999       4.13022330E-03
  0.142590001       4.28623287E-03
  0.142800003       4.43582796E-03
  0.143010005       4.57852380E-03
  0.143220007       4.71385662E-03
  0.143429995       4.84138727E-03
  0.143639997       4.96070087E-03
  0.143849999       5.07141137E-03
  0.144060001       5.17316116E-03
  0.144270003       5.26562240E-03
  0.144480005       5.34849986E-03
  0.144690007       5.42152952E-03
  0.144899994       5.48448134E-03
  0.145109996       5.53716067E-03
  0.145319998       5.57940593E-03
  0.145530000       5.61109185E-03
  0.145740002       5.63212857E-03
  0.145950004       5.64246019E-03
  0.146160007       5.64206857E-03
  0.146369994       5.63096721E-03
  0.146579996       5.60920546E-03
  0.146789998       5.57686621E-03
  0.147000000       5.53406449E-03
  0.147210002       5.48094790E-03
  0.147420004       5.41769341E-03
  0.147630006       5.34450589E-03
  0.147839993       5.26162051E-03
  0.148049995       5.16929757E-03
  0.148259997       5.06781973E-03
  0.148469999       4.95749386E-03
  0.148680001       4.83864592E-03
  0.148890004       4.71162144E-03
  0.149100006       4.57678223E-03
  0.149309993       4.43450408E-03
  0.149519995       4.28517535E-03
  0.149729997       4.12919326E-03
  0.149939999       3.96696245E-03
  0.150150001       3.79889435E-03
  0.150360003       3.62540316E-03
  0.150570005       3.44690355E-03
  0.150780007       3.26380832E-03
  0.150989994       3.07652773E-03
  0.151199996       2.88546761E-03
  0.151409999       2.69102491E-03
  0.151620001       2.49358825E-03
  0.151830003       2.29353528E-03
  0.152040005       2.09123222E-03
  0.152250007       1.88702880E-03
  0.152459994       1.68126088E-03
  0.152669996       1.47424627E-03
  0.152879998       1.26628531E-03
  0.153090000       1.05766056E-03
  0.153300002       8.48631491E-04
  0.153510004       6.39438920E-04
  0.153720006       4.30304004E-04
  0.153929994       2.21423819E-04
  0.154139996       1.29749142E-05
  0.154349998      -1.94888344E-04
  0.154560000      -4.02034115E-04
  0.154770002      -6.08350150E-04
  0.154980004      -8.13746359E-04
  0.155190006      -1.01815362E-03
  0.155399993      -1.22152152E-03
  0.155609995      -1.42381934E-03
  0.155819997      -1.62503426E-03
  0.156029999      -1.82516978E-03
  0.156240001      -2.02424405E-03
  0.156450003      -2.22229050E-03
  0.156660005      -2.41935486E-03
  0.156869993      -2.61549349E-03
  0.157079995      -2.81077158E-03
  0.157289997      -3.00526130E-03
  0.157499999      -3.19904089E-03
  0.157710001      -3.39219347E-03
  0.157920003      -3.58480262E-03
  0.158130005      -3.77695286E-03
  0.158340007      -3.96872684E-03
  0.158549994      -4.16020071E-03
  0.158759996      -4.35144501E-03
  0.158969998      -4.54252446E-03
  0.159180000      -4.73349169E-03
  0.159390002      -4.92438767E-03
  0.159600005      -5.11523802E-03
  0.159810007      -5.30605344E-03
  0.160019994      -5.49682835E-03
  0.160229996      -5.68753481E-03
  0.160439998      -5.87812532E-03
  0.160650000      -6.06853096E-03
  0.160860002      -6.25865720E-03
  0.161070004      -6.44838624E-03
  0.161280006      -6.63757278E-03
  0.161489993      -6.82604266E-03
  0.161699995      -7.01359520E-03
  0.161909997      -7.19999941E-03
  0.162120000      -7.38499360E-03
  0.162330002      -7.56828720E-03
  0.162540004      -7.74955750E-03
  0.162750006      -7.92845059E-03
  0.162959993      -8.10458232E-03
  0.163169995      -8.27753637E-03
  0.163379997      -8.44686478E-03
  0.163589999      -8.61208979E-03
  0.163800001      -8.77269823E-03
  0.164010003      -8.92814994E-03
  0.164220005      -9.07787681E-03
  0.164430007      -9.22127813E-03
  0.164639995      -9.35772713E-03
  0.164849997      -9.48657002E-03
  0.165059999      -9.60712694E-03
  0.165270001      -9.71869286E-03
  0.165480003      -9.82053671E-03
  0.165690005      -9.91191063E-03
  0.165900007      -9.99203976E-03
  0.166109994      -1.00601315E-02
  0.166319996      -1.01153720E-02
  0.166529998      -1.01569276E-02
  0.166740000      -1.01839518E-02
  0.166950002      -1.01955840E-02
  0.167160004      -1.01909498E-02
  0.167370006      -1.01691615E-02
  0.167579994      -1.01293204E-02
  0.167789996      -1.00705177E-02
  0.167999998      -9.99183487E-03
  0.168210000      -9.89234820E-03
  0.168420002      -9.77112260E-03
  0.168630004      -9.62721929E-03
  0.168840006      -9.45969485E-03
  0.169049993      -9.26759746E-03
  0.169259995      -9.04997159E-03
  0.169469997      -8.80586263E-03
  0.169679999      -8.53430573E-03
  0.169890001      -8.23432952E-03
  0.170100003      -7.90495984E-03
  0.170310006      -7.54521694E-03
  0.170519993      -7.15411315E-03
  0.170729995      -6.73065288E-03
  0.170939997      -6.27383357E-03
  0.171149999      -5.78264147E-03
  0.171360001      -5.25605772E-03
  0.171570003      -4.69304994E-03
  0.171780005      -4.09257133E-03
  0.171990007      -3.45355901E-03
  0.172199994      -2.77493475E-03
  0.172409996      -2.05559400E-03
  0.172619998      -1.29440578E-03
  0.172830001      -4.90225852E-04
  0.173040003       3.58120451E-04
  0.173250005       1.25183701E-03
  0.173460007       2.19216081E-03
  0.173669994       3.18036904E-03
  0.173879996       4.21777554E-03
  0.174089998       5.30574191E-03
  0.174300000       6.44566258E-03
  0.174510002       7.63897691E-03
  0.174720004       8.88717733E-03
  0.174930006       1.01918103E-02
  0.175139993       1.15544703E-02
  0.175349995       1.29768057E-02
  0.175559998       1.44605264E-02
  0.175770000       1.60074010E-02
  0.175980002       1.76192615E-02
  0.176190004       1.92979928E-02
  0.176400006       2.10455507E-02
  0.176609993       2.28639580E-02
  0.176819995       2.47552972E-02
  0.177029997       2.67217197E-02
  0.177239999       2.87654381E-02
  0.177450001       3.08887251E-02
  0.177660003       3.30939256E-02
  0.177870005       3.53834219E-02
  0.178080007       3.77596691E-02
  0.178289995       4.02251743E-02
  0.178499997       4.27824929E-02
  0.178709999       4.54342291E-02
  0.178920001       4.81830202E-02
  0.179130003       5.10315597E-02
  0.179340005       5.39825745E-02
  0.179550007       5.70388138E-02
  0.179759994       6.02030344E-02