   0.00000000       0.00000000    
   2.09999998E-04   0.00000000    
   4.19999997E-04   0.00000000    
   6.30000024E-04   0.00000000    
   8.39999993E-04   2.91257402E-20
   1.04999996E-03   3.06037465E-19
   1.26000005E-03   1.73174573E-18
   1.47000002E-03   7.03441507E-18
   1.67999999E-03   2.30150217E-17
   1.88999996E-03   6.44757641E-17
   2.09999993E-03   1.60532887E-16
   2.30999989E-03   3.64112703E-16
   2.52000010E-03   7.65494379E-16
   2.73000007E-03   1.51077188E-15
   2.94000003E-03   2.82608181E-15
   3.15000000E-03   5.04831340E-15
   3.35999997E-03   8.66282279E-15
   3.56999994E-03   1.43484196E-14
   3.77999991E-03   2.30295197E-14
   3.99000011E-03   3.59349323E-14
   4.19999985E-03   5.46621667E-14
   4.41000005E-03   8.12455910E-14
   4.61999979E-03   1.18226094E-13
   4.82999999E-03   1.68719273E-13
   5.04000019E-03   2.36477884E-13
   5.24999993E-03   3.25945027E-13
   5.46000013E-03   4.42292063E-13
   5.66999987E-03   5.91435375E-13
   5.88000007E-03   7.80026000E-13
   6.08999981E-03   1.01540380E-12
   6.30000001E-03   1.30551125E-12
   6.51000021E-03   1.65875777E-12
   6.71999995E-03   2.08382834E-12
   6.93000015E-03   2.58943171E-12
   7.13999989E-03   3.18396980E-12
   7.35000009E-03   3.87514543E-12
   7.55999982E-03   4.66948702E-12
   7.77000003E-03   5.57178479E-12
   7.98000023E-03   6.58445997E-12
   8.19000043E-03   7.70684384E-12
   8.39999970E-03   8.93439142E-12
   8.60999990E-03   1.02578215E-11
   8.82000010E-03   1.16621912E-11
   9.03000031E-03   1.31259396E-11
   9.23999958E-03   1.46199268E-11
   9.44999978E-03   1.61064044E-11
   9.65999998E-03   1.75380561E-11
   9.87000018E-03   1.88570826E-11
   1.00800004E-02   1.99943517E-11
   1.02899997E-02   2.08686679E-11
   1.04999999E-02   2.13861810E-11
   1.07100001E-02   2.14399384E-11
   1.09200003E-02   2.09097618E-11
   1.11300005E-02   1.96623898E-11
   1.13399997E-02   1.75518367E-11
   1.15499999E-02   1.44201821E-11
   1.17600001E-02   1.00987361E-11
   1.19700003E-02   4.40964626E-12
   1.21799996E-02  -2.83201739E-12
   1.23899998E-02  -1.18157333E-11
   1.26000000E-02  -2.27324947E-11
   1.28100002E-02  -3.57710216E-11
   1.30200004E-02  -5.11136827E-11
   1.32299997E-02  -6.89319504E-11
   1.34399999E-02  -8.93809401E-11
   1.36500001E-02  -1.12593726E-10
   1.38600003E-02  -1.38675099E-10
   1.40699996E-02  -1.67695025E-10
   1.42799998E-02  -1.99681507E-10
   1.44900000E-02  -2.34613468E-10
   1.47000002E-02  -2.72413203E-10
   1.49100004E-02  -3.12938786E-10
   1.51199996E-02  -3.55976748E-10
   1.53299998E-02  -4.01234712E-10
   1.55400001E-02  -4.48334342E-10
   1.57500003E-02  -4.96804875E-10
   1.59600005E-02  -5.46077350E-10
   1.61700007E-02  -5.95479777E-10
   1.63800009E-02  -6.44232778E-10
   1.65899992E-02  -6.91447011E-10
   1.67999994E-02  -7.36122663E-10
   1.70099996E-02  -7.77148734E-10
   1.72199998E-02  -8.13305645E-10
   1.74300000E-02  -8.43269177E-10
   1.76400002E-02  -8.65616911E-10
   1.78500004E-02  -8.78836892E-10
   1.80600006E-02  -8.81338447E-10
   1.82700008E-02  -8.71465955E-10
   1.84799992E-02  -8.47515502E-10
   1.86899994E-02  -8.07753364E-10
   1.88999996E-02  -7.50438267E-10
   1.91099998E-02  -6.73845257E-10
   1.93200000E-02  -5.76293679E-10
   1.95300002E-02  -4.56176291E-10
   1.97400004E-02  -3.11991988E-10
   1.99500006E-02  -1.42379511E-10
   2.01600008E-02   5.38454767E-11
   2.03699991E-02   2.77652151E-10
   2.05799993E-02   5.29755351E-10
   2.07899995E-02   8.10575440E-10
   2.09999997E-02   1.12019671E-09
   2.12099999E-02   1.45832724E-09
   2.14200001E-02   1.82425808E-09
   2.16300003E-02   2.21682517E-09
   2.18400005E-02   2.63437072E-09
   2.20500007E-02   3.07470982E-09
   2.22600009E-02   3.53509866E-09
   2.24699993E-02   4.01220657E-09
   2.26799995E-02   4.50209425E-09
   2.28899997E-02   5.00019537E-09
   2.30999999E-02   5.50130785E-09
   2.33100001E-02   5.99958661E-09
   2.35200003E-02   6.48855147E-09
   2.37300005E-02   6.96109526E-09
   2.39400007E-02   7.40950901E-09
   2.41500009E-02   7.82551091E-09
   2.43599992E-02   8.20028578E-09
   2.45699994E-02   8.52454196E-09
   2.47799996E-02   8.78856721E-09
   2.49899998E-02   8.98231001E-09
   2.52000000E-02   9.09546305E-09
   2.54100002E-02   9.11755471E-09
   2.56200004E-02   9.03806363E-09
   2.58300006E-02   8.84653240E-09
   2.60400008E-02   8.53270254E-09
   2.62499992E-02   8.08664957E-09
   2.64599994E-02   7.49893303E-09
   2.66699996E-02   6.76074885E-09
   2.68799998E-02   5.86409721E-09
   2.70900000E-02   4.80195350E-09
   2.73000002E-02   3.56843954E-09
   2.75100004E-02   2.15899942E-09
   2.77200006E-02   5.70576308E-10
   2.79300008E-02  -1.19821486E-09
   2.81399991E-02  -3.14691628E-09
   2.83499993E-02  -5.27305266E-09
   2.85599995E-02  -7.57197682E-09
   2.87699997E-02  -1.00367226E-08
   2.89799999E-02  -1.26578668E-08
   2.91900001E-02  -1.54234030E-08
   2.94000003E-02  -1.83186550E-08
   2.96100006E-02  -2.13261799E-08
   2.98200008E-02  -2.44257201E-08
   3.00299991E-02  -2.75941723E-08
   3.02399993E-02  -3.08055697E-08
   3.04499995E-02  -3.40311175E-08
   3.06599997E-02  -3.72392464E-08
   3.08699999E-02  -4.03957117E-08
   3.10800001E-02  -4.34637144E-08
   3.12899984E-02  -4.64040824E-08
   3.15000005E-02  -4.91754477E-08
   3.17099988E-02  -5.17345136E-08
   3.19200009E-02  -5.40363274E-08
   3.21299993E-02  -5.60346081E-08
   3.23400013E-02  -5.76821044E-08
   3.25499997E-02  -5.89310005E-08
   3.27600017E-02  -5.97333525E-08
   3.29700001E-02  -6.00415504E-08
   3.31799984E-02  -5.98088334E-08
   3.33900005E-02  -5.89898264E-08
   3.35999988E-02  -5.75410830E-08
   3.38100009E-02  -5.54217046E-08
   3.40199992E-02  -5.25939008E-08
   3.42300013E-02  -4.90236367E-08
   3.44399996E-02  -4.46812471E-08
   3.46500017E-02  -3.95420408E-08
   3.48600000E-02  -3.35869395E-08
   3.50699984E-02  -2.68030931E-08
   3.52800004E-02  -1.91844709E-08
   3.54899988E-02  -1.07324141E-08
   3.57000008E-02  -1.45617163E-09
   3.59099992E-02   8.62658656E-09
   3.61200012E-02   1.94893097E-08
   3.63299996E-02   3.10962243E-08
   3.65400016E-02   4.34019469E-08
   3.67500000E-02   5.63512330E-08
   3.69599983E-02   6.98788156E-08
   3.71700004E-02   8.39092920E-08
   3.73799987E-02   9.83571269E-08
   3.75900008E-02   1.13126674E-07
   3.77999991E-02   1.28112433E-07
   3.80100012E-02   1.43199301E-07
   3.82199995E-02   1.58262992E-07
   3.84300016E-02   1.73170491E-07
   3.86399999E-02   1.87780742E-07
   3.88499983E-02   2.01945369E-07
   3.90600003E-02   2.15509516E-07
   3.92699987E-02   2.28312842E-07
   3.94800007E-02   2.40190559E-07
   3.96899991E-02   2.50974665E-07
   3.99000011E-02   2.60495199E-07
   4.01099995E-02   2.68581601E-07
   4.03200015E-02   2.75064309E-07
   4.05299999E-02   2.79776202E-07
   4.07399982E-02   2.82554254E-07
   4.09500003E-02   2.83241235E-07
   4.11599986E-02   2.81687392E-07
   4.13700007E-02   2.77752349E-07
   4.15799990E-02   2.71306760E-07
   4.17900011E-02   2.62234209E-07
   4.19999994E-02   2.50432947E-07
   4.22100015E-02   2.35817680E-07
   4.24199998E-02   2.18321247E-07
   4.26299982E-02   1.97896313E-07
   4.28400002E-02   1.74516870E-07
   4.30499986E-02   1.48179737E-07
   4.32600006E-02   1.18905994E-07
   4.34699990E-02   8.67421619E-08
   4.36800011E-02   5.17611909E-08
   4.38899994E-02   1.40634526E-08
   4.41000015E-02  -2.62226028E-08
   4.43099998E-02  -6.89399329E-08
   4.45200019E-02  -1.13902551E-07
   4.47300002E-02  -1.60895567E-07
   4.49399985E-02  -2.09675306E-07
   4.51500006E-02  -2.59969653E-07
   4.53599989E-02  -3.11478914E-07
   4.55700010E-02  -3.63876637E-07
   4.57799993E-02  -4.16810821E-07
   4.59900014E-02  -4.69905558E-07
   4.61999997E-02  -5.22762775E-07
   4.64100018E-02  -5.74964020E-07
   4.66200002E-02  -6.26072904E-07
   4.68299985E-02  -6.75637978E-07
   4.70400006E-02  -7.23195058E-07
   4.72499989E-02  -7.68270525E-07
   4.74600010E-02  -8.10384506E-07
   4.76699993E-02  -8.49054288E-07
   4.78800014E-02  -8.83798180E-07
   4.80899997E-02  -9.14139321E-07
   4.83000018E-02  -9.39609208E-07
   4.85100001E-02  -9.59752356E-07
   4.87199984E-02  -9.74130103E-07
   4.89300005E-02  -9.82324536E-07
   4.91399989E-02  -9.83943437E-07
   4.93500009E-02  -9.78624143E-07
   4.95599993E-02  -9.66037646E-07
   4.97700013E-02  -9.45892793E-07
   4.99799997E-02  -9.17940440E-07
   5.01900017E-02  -8.81977030E-07
   5.04000001E-02  -8.37848404E-07
   5.06099984E-02  -7.85453381E-07
   5.08200005E-02  -7.24746656E-07
   5.10299988E-02  -6.55742269E-07
   5.12400009E-02  -5.78515710E-07
   5.14499992E-02  -4.93206585E-07
   5.16600013E-02  -4.00020411E-07
   5.18699996E-02  -2.99229868E-07
   5.20800017E-02  -1.91176071E-07
   5.22900000E-02  -7.62692594E-08
   5.24999984E-02   4.50111628E-08
   5.27100004E-02   1.72117069E-07
   5.29199988E-02   3.04432263E-07
   5.31300008E-02   4.41274068E-07
   5.33399992E-02   5.81895108E-07
   5.35500012E-02   7.25485904E-07
   5.37599996E-02   8.71177747E-07
   5.39700016E-02   1.01804608E-06
   5.41800000E-02   1.16511478E-06
   5.43899983E-02   1.31136096E-06
   5.46000004E-02   1.45571994E-06
   5.48099987E-02   1.59709055E-06
   5.50200008E-02   1.73434148E-06
   5.52299991E-02   1.86631780E-06
   5.54400012E-02   1.99184819E-06
   5.56499995E-02   2.10975145E-06
   5.58600016E-02   2.21884579E-06
   5.60699999E-02   2.31795639E-06
   5.62799983E-02   2.40592249E-06
   5.64900003E-02   2.48160836E-06
   5.66999987E-02   2.54390966E-06
   5.69100007E-02   2.59176500E-06
   5.71199991E-02   2.62416324E-06
   5.73300011E-02   2.64015375E-06
   5.75399995E-02   2.63885522E-06
   5.77500015E-02   2.61946479E-06
   5.79599999E-02   2.58126784E-06
   5.81699982E-02   2.52364566E-06
   5.83800003E-02   2.44608555E-06
   5.85899986E-02   2.34818776E-06
   5.88000007E-02   2.22967469E-06
   5.90099990E-02   2.09039831E-06
   5.92200011E-02   1.93034725E-06
   5.94299994E-02   1.74965248E-06
   5.96400015E-02   1.54859470E-06
   5.98499998E-02   1.32760886E-06
   6.00599982E-02   1.08728875E-06
   6.02700002E-02   8.28390796E-07
   6.04799986E-02   5.51836763E-07
   6.06900007E-02   2.58716028E-07
   6.08999990E-02  -4.97132682E-08
   6.11100011E-02  -3.72025397E-07
   6.13199994E-02  -7.06627816E-07
   6.15300015E-02  -1.05176264E-06
   6.17399998E-02  -1.40551128E-06
   6.19499981E-02  -1.76579852E-06
   6.21600002E-02  -2.13039993E-06
   6.23699985E-02  -2.49694790E-06
   6.25799969E-02  -2.86294107E-06
   6.27899989E-02  -3.22575420E-06
   6.30000010E-02  -3.58264901E-06
   6.32100031E-02  -3.93078926E-06
   6.34199977E-02  -4.26725228E-06
   6.36299998E-02  -4.58904697E-06
   6.38400018E-02  -4.89312924E-06
   6.40499964E-02  -5.17642047E-06
   6.42599985E-02  -5.43582792E-06
   6.44700006E-02  -5.66826384E-06
   6.46800026E-02  -5.87067007E-06
   6.48899972E-02  -6.04003753E-06
   6.50999993E-02  -6.17343267E-06
   6.53100014E-02  -6.26802102E-06
   6.55200034E-02  -6.32109459E-06
   6.57299981E-02  -6.33009358E-06
   6.59400001E-02  -6.29263650E-06
   6.61500022E-02  -6.20654873E-06
   6.63599968E-02  -6.06988624E-06
   6.65699989E-02  -5.88096327E-06
   6.67800009E-02  -5.63837966E-06
   6.69900030E-02  -5.34104720E-06
   6.71999976E-02  -4.98821510E-06
   6.74099997E-02  -4.57949363E-06
   6.76200017E-02  -4.11487963E-06
   6.78299963E-02  -3.59477849E-06
   6.80399984E-02  -3.02002218E-06
   6.82500005E-02  -2.39188807E-06
   6.84600025E-02  -1.71211968E-06
   6.86699972E-02  -9.82937877E-07
   6.88799992E-02  -2.07050633E-07
   6.90900013E-02   6.12335612E-07
   6.93000033E-02   1.47151263E-06
   6.95099980E-02   2.36626920E-06
   6.97200000E-02   3.29189174E-06
   6.99300021E-02   4.24316886E-06
   7.01399967E-02   5.21440415E-06
   7.03499988E-02   6.19942693E-06
   7.05600008E-02   7.19161335E-06
   7.07700029E-02   8.18390890E-06
   7.09799975E-02   9.16885620E-06
   7.11899996E-02   1.01386267E-05
   7.14000016E-02   1.10850569E-05
   7.16100037E-02   1.19996903E-05
   7.18199983E-02   1.28738238E-05
   7.20300004E-02   1.36985645E-05
   7.22400025E-02   1.44648748E-05
   7.24499971E-02   1.51636386E-05
   7.26599991E-02   1.57857266E-05
   7.28700012E-02   1.63220593E-05
   7.30800033E-02   1.67636808E-05
   7.32899979E-02   1.71018291E-05
   7.34999999E-02   1.73280205E-05
   7.37100020E-02   1.74341221E-05
   7.39199966E-02   1.74124343E-05
   7.41299987E-02   1.72557793E-05
   7.43400007E-02   1.69575687E-05
   7.45500028E-02   1.65119018E-05
   7.47599974E-02   1.59136489E-05
   7.49699995E-02   1.51585118E-05
   7.51800016E-02   1.42431209E-05
   7.53900036E-02   1.31651077E-05
   7.55999982E-02   1.19231754E-05
   7.58100003E-02   1.05171666E-05
   7.60200024E-02   8.94812183E-06
   7.62299970E-02   7.21834749E-06
   7.64399990E-02   5.33146113E-06
   7.66500011E-02   3.29242675E-06
   7.68600032E-02   1.10759458E-06
   7.70699978E-02  -1.21526671E-06
   7.72799999E-02  -3.66695713E-06
   7.74900019E-02  -6.23684446E-06
   7.76999965E-02  -8.91286800E-06
   7.79099986E-02  -1.16815436E-05
   7.81200007E-02  -1.45280010E-05
   7.83300027E-02  -1.74360212E-05
   7.85399973E-02  -2.03880882E-05
   7.87499994E-02  -2.33654446E-05
   7.89600015E-02  -2.63481816E-05
   7.91700035E-02  -2.93153134E-05
   7.93799981E-02  -3.22448868E-05
   7.95900002E-02  -3.51140989E-05
   7.98000023E-02  -3.78994009E-05
   8.00099969E-02  -4.05766659E-05
   8.02199990E-02  -4.31213120E-05
   8.04300010E-02  -4.55084737E-05
   8.06400031E-02  -4.77131543E-05
   8.08499977E-02  -4.97104156E-05
   8.10599998E-02  -5.14755520E-05
   8.12700018E-02  -5.29842728E-05
   8.14799964E-02  -5.42129128E-05
   8.16899985E-02  -5.51386220E-05
   8.19000006E-02  -5.57395870E-05
   8.21100026E-02  -5.59951804E-05
   8.23199973E-02  -5.58862084E-05
   8.25299993E-02  -5.53950995E-05
   8.27400014E-02  -5.45060866E-05
   8.29500034E-02  -5.32054109E-05
   8.31599981E-02  -5.14814928E-05
   8.33700001E-02  -4.93251137E-05
   8.35800022E-02  -4.67295868E-05
   8.37899968E-02  -4.36908922E-05
   8.39999989E-02  -4.02078076E-05
   8.42100009E-02  -3.62820610E-05
   8.44200030E-02  -3.19184037E-05
   8.46299976E-02  -2.71247300E-05
   8.48399997E-02  -2.19121102E-05
   8.50500017E-02  -1.62948600E-05
   8.52599964E-02  -1.02905578E-05
   8.54699984E-02  -3.92004040E-06
   8.56800005E-02   2.79259848E-06
   8.58900025E-02   9.82007714E-06
   8.60999972E-02   1.71319862E-05
   8.63099992E-02   2.46948803E-05
   8.65200013E-02   3.24724024E-05
   8.67300034E-02   4.04254242E-05
   8.69399980E-02   4.85122291E-05
   8.71500000E-02   5.66886920E-05
   8.73600021E-02   6.49084905E-05
   8.75699967E-02   7.31233595E-05
   8.77799988E-02   8.12833387E-05
   8.79900008E-02   8.93370525E-05
   8.82000029E-02   9.72320122E-05
   8.84099975E-02   1.04914936E-04
   8.86199996E-02   1.12332040E-04
   8.88300017E-02   1.19429431E-04
   8.90400037E-02   1.26153405E-04
   8.92499983E-02   1.32450863E-04
   8.94600004E-02   1.38269621E-04
   8.96700025E-02   1.43558776E-04
   8.98799971E-02   1.48269086E-04
   9.00899991E-02   1.52353357E-04
   9.03000012E-02   1.55766742E-04
   9.05100033E-02   1.58467155E-04
   9.07199979E-02   1.60415526E-04
   9.09299999E-02   1.61576187E-04
   9.11400020E-02   1.61917167E-04
   9.13499966E-02   1.61410426E-04
   9.15599987E-02   1.60032170E-04
   9.17700008E-02   1.57763090E-04
   9.19800028E-02   1.54588532E-04
   9.21899974E-02   1.50498730E-04
   9.23999995E-02   1.45488884E-04
   9.26100016E-02   1.39559386E-04
   9.28200036E-02   1.32715810E-04
   9.30299982E-02   1.24969010E-04
   9.32400003E-02   1.16335126E-04
   9.34500024E-02   1.06835607E-04
   9.36599970E-02   9.64970532E-05
   9.38699991E-02   8.53512029E-05
   9.40800011E-02   7.34348068E-05
   9.42900032E-02   6.07894217E-05
   9.44999978E-02   4.74612280E-05
   9.47099999E-02   3.35008190E-05
   9.49200019E-02   1.89628754E-05
   9.51299965E-02   3.90594232E-06
   9.53399986E-02  -1.16079173E-05
   9.55500007E-02  -2.75134953E-05
   9.57600027E-02  -4.37427880E-05
   9.59699973E-02  -6.02254004E-05
   9.61799994E-02  -7.68889586E-05
   9.63900015E-02  -9.36594952E-05
   9.66000035E-02  -1.10461937E-04
   9.68099982E-02  -1.27220526E-04
   9.70200002E-02  -1.43859244E-04
   9.72300023E-02  -1.60302297E-04
   9.74399969E-02  -1.76474539E-04
   9.76499990E-02  -1.92301901E-04
   9.78600010E-02  -2.07711841E-04
   9.80700031E-02  -2.22633738E-04
   9.82799977E-02  -2.36999273E-04
   9.84899998E-02  -2.50742858E-04
   9.87000018E-02  -2.63801921E-04
   9.89099964E-02  -2.76117265E-04
   9.91199985E-02  -2.87633331E-04
   9.93300006E-02  -2.98298517E-04
   9.95400026E-02  -3.08065384E-04
   9.97499973E-02  -3.16890801E-04
   9.99599993E-02  -3.24736233E-04
  0.100170001      -3.31567659E-04
  0.100380003      -3.37355770E-04
  0.100589998      -3.42076120E-04
  0.100800000      -3.45708890E-04
  0.101010002      -3.48239060E-04
  0.101219997      -3.49656126E-04
  0.101429999      -3.49954178E-04
  0.101640001      -3.49131646E-04
  0.101850003      -3.47191148E-04
  0.102059998      -3.44139233E-04
  0.102270000      -3.39986233E-04
  0.102480002      -3.34745913E-04
  0.102689996      -3.28435242E-04
  0.102899998      -3.21073894E-04
  0.103110000      -3.12684162E-04
  0.103320003      -3.03290581E-04
  0.103529997      -2.92919343E-04
  0.103739999      -2.81598186E-04
  0.103950001      -2.69355980E-04
  0.104160003      -2.56222382E-04
  0.104369998      -2.42227412E-04
  0.104580000      -2.27401193E-04
  0.104790002      -2.11773629E-04
  0.104999997      -1.95374145E-04
  0.105209999      -1.78231378E-04
  0.105420001      -1.60372889E-04
  0.105630003      -1.41825047E-04
  0.105839998      -1.22612779E-04
  0.106050000      -1.02759594E-04
  0.106260002      -8.22872462E-05
  0.106470004      -6.12157382E-05
  0.106679998      -3.95634452E-05
  0.106890000      -1.73470307E-05
  0.107100002       5.41846975E-06
  0.107309997       2.87195071E-05
  0.107519999       5.25438481E-05
  0.107730001       7.68804166E-05
  0.107940003       1.01719037E-04
  0.108149998       1.27050109E-04
  0.108360000       1.52864333E-04
  0.108570002       1.79152266E-04
  0.108779997       2.05904027E-04
  0.108989999       2.33108847E-04
  0.109200001       2.60754576E-04
  0.109410003       2.88827257E-04
  0.109619997       3.17310623E-04
  0.109830000       3.46185581E-04
  0.110040002       3.75429809E-04
  0.110250004       4.05017083E-04
  0.110459998       4.34916874E-04
  0.110670000       4.65094025E-04
  0.110880002       4.95507906E-04
  0.111089997       5.26112388E-04
  0.111299999       5.56855055E-04
  0.111510001       5.87677059E-04
  0.111720003       6.18512684E-04
  0.111929998       6.49288937E-04
  0.112140000       6.79925433E-04
  0.112350002       7.10334163E-04
  0.112559997       7.40419375E-04
  0.112769999       7.70077342E-04
  0.112980001       7.99196481E-04
  0.113190003       8.27657233E-04
  0.113399997       8.55332415E-04
  0.113609999       8.82087159E-04
  0.113820001       9.07779438E-04
  0.114030004       9.32260009E-04
  0.114239998       9.55373165E-04
  0.114450000       9.76957148E-04
  0.114660002       9.96844377E-04
  0.114869997       1.01486244E-03
  0.115079999       1.03083462E-03
  0.115290001       1.04458071E-03
  0.115500003       1.05591747E-03
  0.115709998       1.06466014E-03
  0.115920000       1.07062247E-03
  0.116130002       1.07361877E-03
  0.116339996       1.07346359E-03
  0.116549999       1.06997404E-03
  0.116760001       1.06296979E-03
  0.116970003       1.05227495E-03
  0.117179997       1.03771850E-03
  0.117389999       1.01913570E-03
  0.117600001       9.96369054E-04
  0.117810003       9.69269837E-04
  0.118019998       9.37698351E-04
  0.118230000       9.01525433E-04
  0.118440002       8.60633503E-04
  0.118649997       8.14917323E-04
  0.118859999       7.64284981E-04
  0.119070001       7.08658714E-04
  0.119280003       6.47975772E-04
  0.119489998       5.82189183E-04
  0.119700000       5.11268037E-04
  0.119910002       4.35198628E-04
  0.120119996       3.53984535E-04
  0.120329998       2.67647119E-04
  0.120540000       1.76225964E-04
  0.120750003       7.97788234E-05
  0.120959997      -2.16179669E-05
  0.121169999      -1.27869571E-04
  0.121380001      -2.38862776E-04
  0.121590003      -3.54466029E-04
  0.121799998      -4.74529836E-04
  0.122010000      -5.98887040E-04
  0.122220002      -7.27353210E-04
  0.122429997      -8.59727326E-04
  0.122639999      -9.95792099E-04
  0.122850001      -1.13531516E-03
  0.123060003      -1.27804943E-03
  0.123269998      -1.42373424E-03
  0.123480000      -1.57209602E-03
  0.123690002      -1.72284921E-03
  0.123899996      -1.87569752E-03
  0.124109998      -2.03033490E-03
  0.124320000      -2.18644692E-03
  0.124530002      -2.34371121E-03
  0.124739997      -2.50179879E-03
  0.124949999      -2.66037602E-03
  0.125159994      -2.81910528E-03
  0.125369996      -2.97764549E-03
  0.125579998      -3.13565391E-03
  0.125790000      -3.29278735E-03
  0.126000002      -3.44870263E-03
  0.126210004      -3.60305887E-03
  0.126420006      -3.75551707E-03
  0.126629993      -3.90574220E-03
  0.126839995      -4.05340269E-03
  0.127049997      -4.19817353E-03
  0.127260000      -4.33973409E-03
  0.127470002      -4.47777193E-03
  0.127680004      -4.61198064E-03
  0.127890006      -4.74206218E-03
  0.128099993      -4.86772694E-03
  0.128309995      -4.98869363E-03
  0.128519997      -5.10468986E-03
  0.128729999      -5.21545345E-03
  0.128940001      -5.32073015E-03
  0.129150003      -5.42027503E-03
  0.129360005      -5.51385246E-03
  0.129570007      -5.60123567E-03
  0.129779994      -5.68220811E-03
  0.129989997      -5.75656025E-03
  0.130199999      -5.82409091E-03
  0.130410001      -5.88460686E-03
  0.130620003      -5.93792228E-03
  0.130830005      -5.98385790E-03
  0.131040007      -6.02223957E-03
  0.131249994      -6.05290057E-03
  0.131459996      -6.07567653E-03
  0.131669998      -6.09041005E-03
  0.131880000      -6.09694514E-03
  0.132090002      -6.09512953E-03
  0.132300004      -6.08481187E-03
  0.132510006      -6.06584409E-03
  0.132719994      -6.03807857E-03
  0.132929996      -6.00136584E-03
  0.133139998      -5.95555874E-03
  0.133350000      -5.90050733E-03
  0.133560002      -5.83606167E-03
  0.133770004      -5.76206949E-03
  0.133980006      -5.67837572E-03
  0.134189993      -5.58482483E-03
  0.134399995      -5.48125757E-03
  0.134609997      -5.36751188E-03
  0.134819999      -5.24342479E-03
  0.135030001      -5.10882959E-03
  0.135240003      -4.96355770E-03
  0.135450006      -4.80743917E-03
  0.135659993      -4.64030309E-03
  0.135869995      -4.46197763E-03
  0.136079997      -4.27229004E-03
  0.136289999      -4.07107035E-03
  0.136500001      -3.85814859E-03
  0.136710003      -3.63335852E-03
  0.136920005      -3.39653762E-03
  0.137130007      -3.14752874E-03
  0.137339994      -2.88618123E-03
  0.137549996      -2.61235237E-03
  0.137759998      -2.32590851E-03
  0.137970001      -2.02672789E-03
  0.138180003      -1.71470072E-03
  0.138390005      -1.38973258E-03
  0.138600007      -1.05174491E-03
  0.138809994      -7.00677687E-04
  0.139019996      -3.36490775E-04
  0.139229998       4.08338092E-05
  0.139440000       4.31290042E-04
  0.139650002       8.34846229E-04
  0.139860004       1.25144236E-03
  0.140070006       1.68098870E-03
  0.140279993       2.12336401E-03
  0.140489995       2.57841335E-03
  0.140699998       3.04594636E-03
  0.140910000       3.52573534E-03
  0.141120002       4.01751418E-03
  0.141330004       4.52097692E-03
  0.141540006       5.03577478E-03
  0.141749993       5.56151662E-03
  0.141959995       6.09776657E-03
  0.142169997       6.64404314E-03
  0.142379999       7.19981967E-03
  0.142590001       7.76452059E-03
  0.142800003       8.33752286E-03
  0.143010005       8.91815498E-03
  0.143220007       9.50569753E-03
  0.143429995       1.00993831E-02
  0.143639997       1.06983939E-02
  0.143849999       1.13018649E-02
  0.144060001       1.19088823E-02
  0.144270003       1.25184860E-02
  0.144480005       1.31296720E-02
  0.144690007       1.37413861E-02
  0.144899994       1.43525330E-02
  0.145109996       1.49619747E-02
  0.145319998       1.55685358E-02
  0.145530000       1.61709972E-02
  0.145740002       1.67681072E-02
  0.145950004       1.73585769E-02
  0.146160007       1.79410856E-02
  0.146369994       1.85142905E-02
  0.146579996       1.90768149E-02
  0.146789998       1.96272638E-02
  0.147000000       2.01642215E-02
  0.147210002       2.06862539E-02
  0.147420004       2.11919174E-02
  0.147630006       2.16797609E-02
  0.147839993       2.21483242E-02
  0.148049995       2.25961469E-02
  0.148259997       2.30217744E-02
  0.148469999       2.34237574E-02
  0.148680001       2.38006581E-02
  0.148890004       2.41510496E-02
  0.149100006       2.44735349E-02
  0.149309993       2.47667339E-02
  0.149519995       2.50292961E-02
  0.149729997       2.52599064E-02
  0.149939999       2.54572816E-02
  0.150150001       2.56201886E-02
  0.150360003       2.57474333E-02
  0.150570005       2.58378740E-02
  0.150780007       2.58904211E-02
  0.150989994       2.59040482E-02
  0.151199996       2.58777849E-02
  0.151409999       2.58107316E-02
  0.151620001       2.57020574E-02
  0.151830003       2.55510025E-02
  0.152040005       2.53568850E-02
  0.152250007       2.51191035E-02
  0.152459994       2.48371381E-02
  0.152669996       2.45105550E-02
  0.152879998       2.41390076E-02
  0.153090000       2.37222426E-02
  0.153300002       2.32600924E-02
  0.153510004       2.27524918E-02
  0.153720006       2.21994650E-02
  0.153929994       2.16011386E-02
  0.154139996       2.09577326E-02
  0.154349998       2.02695709E-02
  0.154560000       1.95370689E-02
  0.154770002       1.87607519E-02
  0.154980004       1.79412421E-02
  0.155190006       1.70792565E-02
  0.155399993       1.61756147E-02
  0.155609995       1.52312331E-02
  0.155819997       1.42471232E-02
  0.156029999       1.32243922E-02
  0.156240001       1.21642426E-02
  0.156450003       1.10679660E-02
  0.156660005       9.93694365E-03
  0.156869993       8.77264142E-03
  0.157079995       7.57660903E-03
  0.157289997       6.35047583E-03
  0.157499999       5.09594847E-03
  0.157710001       3.81480693E-03
  0.157920003       2.50889850E-03
  0.158130005       1.18013588E-03
  0.158340007      -1.69507504E-04
  0.158549994      -1.53800123E-03
  0.158759996      -2.92326394E-03
  0.158969998      -4.32316912E-03
  0.159180000      -5.73554728E-03
  0.159390002      -7.15819327E-03
  0.159600005      -8.58886912E-03
  0.159810007      -1.00253141E-02
  0.160019994      -1.14652440E-02
  0.160229996      -1.29063595E-02
  0.160439998      -1.43463528E-02
  0.160650000      -1.57829113E-02
  0.160860002      -1.72137264E-02
  0.161070004      -1.86364930E-02
  0.161280006      -2.00489238E-02
  0.161489993      -2.14487445E-02
  0.161699995      -2.28337049E-02
  0.161909997      -2.42015887E-02
  0.162120000      -2.55502071E-02
  0.162330002      -2.68774200E-02
  0.162540004      -2.81811226E-02
  0.162750006      -2.94592660E-02
  0.162959993      -3.07098534E-02
  0.163169995      -3.19309458E-02
  0.163379997      -3.31206694E-02
  0.163589999      -3.42772193E-02
  0.163800001      -3.53988595E-02
  0.164010003      -3.64839286E-02
  0.164220005      -3.75308543E-02
  0.164430007      -3.85381393E-02
  0.164639995      -3.95043753E-02
  0.164849997      -4.04282473E-02
  0.165059999      -4.13085259E-02
  0.165270001      -4.21440788E-02
  0.165480003      -4.29338776E-02
  0.165690005      -4.36769873E-02
  0.165900007      -4.43725809E-02
  0.166109994      -4.50199284E-02
  0.166319996      -4.56184112E-02
  0.166529998      -4.61675152E-02
  0.166740000      -4.66668382E-02
  0.166950002      -4.71160859E-02
  0.167160004      -4.75150719E-02
  0.167370006      -4.78637293E-02
  0.167579994      -4.81620952E-02
  0.167789996      -4.84103262E-02
  0.167999998      -4.86086868E-02
  0.168210000      -4.87575568E-02
  0.168420002      -4.88574319E-02
  0.168630004      -4.89089154E-02
  0.168840006      -4.89127301E-02
  0.169049993      -4.88697141E-02
  0.169259995      -4.87808175E-02
  0.169469997      -4.86470982E-02
  0.169679999      -4.84697409E-02
  0.169890001      -4.82500345E-02
  0.170100003      -4.79893759E-02
  0.170310006      -4.76892889E-02
  0.170519993      -4.73514013E-02
  0.170729995      -4.69774604E-02
  0.170939997      -4.65693213E-02
  0.171149999      -4.61289547E-02
  0.171360001      -4.56584468E-02
  0.171570003      -4.51599844E-02
  0.171780005      -4.46358807E-02
  0.171990007      -4.40885574E-02
  0.172199994      -4.35205437E-02
  0.172409996      -4.29344960E-02
  0.172619998      -4.23331708E-02
  0.172830001      -4.17194366E-02
  0.173040003      -4.10962850E-02
  0.173250005      -4.04668152E-02
  0.173460007      -3.98342386E-02
  0.173669994      -3.92018892E-02
  0.173879996      -3.85732017E-02
  0.174089998      -3.79517078E-02
  0.174300000      -3.73410806E-02
  0.174510002      -3.67450900E-02
  0.174720004      -3.61676216E-02
  0.174930006      -3.56126539E-02
  0.175139993      -3.50842886E-02
  0.175349995      -3.45867164E-02
  0.175559998      -3.41242366E-02
  0.175770000      -3.37012559E-02
  0.175980002      -3.33222710E-02
  0.176190004      -3.29918824E-02
  0.176400006      -3.27147767E-02
  0.176609993      -3.24957296E-02
  0.176819995      -3.23395990E-02
  0.177029997      -3.22513282E-02
  0.177239999      -3.22359316E-02
  0.177450001      -3.22984941E-02
  0.177660003      -3.24441604E-02
  0.177870005      -3.26781273E-02
  0.178080007      -3.30056511E-02
  0.178289995      -3.34320180E-02
  0.178499997      -3.39625627E-02
  0.178709999      -3.46026309E-02
  0.178920001      -3.53575945E-02
  0.179130003      -3.62328254E-02
  0.179340005      -3.72336991E-02
  0.179550007      -3.83655801E-02
  0.179759994      -3.96337993E-02