   0.00000000       0.00000000    
   2.09999998E-04   0.00000000    
   4.19999997E-04   0.00000000    
   6.30000024E-04   0.00000000    
   8.39999993E-04   1.67730422E-18
   1.04999996E-03   1.89700341E-17
   1.26000005E-03   1.14423034E-16
   1.47000002E-03   4.91077357E-16
   1.67999999E-03   1.68486659E-15
   1.88999996E-03   4.91864409E-15
   2.09999993E-03   1.26947081E-14
   2.30999989E-03   2.97164027E-14
   2.52000010E-03   6.42395005E-14
   2.73000007E-03   1.29959072E-13
   2.94000003E-03   2.48536001E-13
   3.15000000E-03   4.52857370E-13
   3.35999997E-03   7.91106818E-13
   3.56999994E-03   1.33169181E-12
   3.77999991E-03   2.16903600E-12
   3.99000011E-03   3.43019905E-12
   4.19999985E-03   5.28221781E-12
   4.41000005E-03   7.94001063E-12
   4.61999979E-03   1.16745866E-11
   4.82999999E-03   1.68212545E-11
   5.04000019E-03   2.37874043E-11
   5.24999993E-03   3.30593643E-11
   5.46000013E-03   4.52077646E-11
   5.66999987E-03   6.08907300E-11
   5.88000007E-03   8.08542053E-11
   6.08999981E-03   1.05928558E-10
   6.30000001E-03   1.37020784E-10
   6.51000021E-03   1.75101267E-10
   6.71999995E-03   2.21184404E-10
   6.93000015E-03   2.76302398E-10
   7.13999989E-03   3.41471240E-10
   7.35000009E-03   4.17648527E-10
   7.55999982E-03   5.05682385E-10
   7.77000003E-03   6.06251771E-10
   7.98000023E-03   7.19797055E-10
   8.19000043E-03   8.46442361E-10
   8.39999970E-03   9.85909576E-10
   8.60999990E-03   1.13742438E-09
   8.82000010E-03   1.29961641E-09
   9.03000031E-03   1.47041479E-09
   9.23999958E-03   1.64694136E-09
   9.44999978E-03   1.82540350E-09
   9.65999998E-03   2.00098982E-09
   9.87000018E-03   2.16777263E-09
   1.00800004E-02   2.31862018E-09
   1.02899997E-02   2.44512299E-09
   1.04999999E-02   2.53753929E-09
   1.07100001E-02   2.58476418E-09
   1.09200003E-02   2.57432764E-09
   1.11300005E-02   2.49242604E-09
   1.13399997E-02   2.32399344E-09
   1.15499999E-02   2.05281814E-09
   1.17600001E-02   1.66170711E-09
   1.19700003E-02   1.13270748E-09
   1.21799996E-02   4.47384296E-10
   1.23899998E-02  -4.12838513E-10
   1.26000000E-02  -1.46626966E-09
   1.28100002E-02  -2.73047762E-09
   1.30200004E-02  -4.22174562E-09
   1.32299997E-02  -5.95446004E-09
   1.34399999E-02  -7.94043320E-09
   1.36500001E-02  -1.01881605E-08
   1.38600003E-02  -1.27020208E-08
   1.40699996E-02  -1.54814206E-08
   1.42799998E-02  -1.85199021E-08
   1.44900000E-02  -2.18042135E-08
   1.47000002E-02  -2.53133567E-08
   1.49100004E-02  -2.90176434E-08
   1.51199996E-02  -3.28777396E-08
   1.53299998E-02  -3.68437618E-08
   1.55400001E-02  -4.08544203E-08
   1.57500003E-02  -4.48362272E-08
   1.59600005E-02  -4.87028053E-08
   1.61700007E-02  -5.23543342E-08
   1.63800009E-02  -5.56771198E-08
   1.65899992E-02  -5.85433781E-08
   1.67999994E-02  -6.08111819E-08
   1.70099996E-02  -6.23246876E-08
   1.72199998E-02  -6.29145731E-08
   1.74300000E-02  -6.23987972E-08
   1.76400002E-02  -6.05836874E-08
   1.78500004E-02  -5.72652823E-08
   1.80600006E-02  -5.22311261E-08
   1.82700008E-02  -4.52623858E-08
   1.84799992E-02  -3.61363526E-08
   1.86899994E-02  -2.46293439E-08
   1.88999996E-02  -1.05199991E-08
   1.91099998E-02   6.40703091E-09
   1.93200000E-02   2.63570215E-08
   1.95300002E-02   4.95207004E-08
   1.97400004E-02   7.60695045E-08
   1.99500006E-02   1.06150416E-07
   2.01600008E-02   1.39880640E-07
   2.03699991E-02   1.77341960E-07
   2.05799993E-02   2.18574982E-07
   2.07899995E-02   2.63573241E-07
   2.09999997E-02   3.12277137E-07
   2.12099999E-02   3.64568308E-07
   2.14200001E-02   4.20263575E-07
   2.16300003E-02   4.79109644E-07
   2.18400005E-02   5.40777705E-07
   2.20500007E-02   6.04858826E-07
   2.22600009E-02   6.70859379E-07
   2.24699993E-02   7.38197855E-07
   2.26799995E-02   8.06201740E-07
   2.28899997E-02   8.74105638E-07
   2.30999999E-02   9.41050473E-07
   2.33100001E-02   1.00608327E-06
   2.35200003E-02   1.06815924E-06
   2.37300005E-02   1.12614396E-06
   2.39400007E-02   1.17881757E-06
   2.41500009E-02   1.22488052E-06
   2.43599992E-02   1.26296106E-06
   2.45699994E-02   1.29162368E-06
   2.47799996E-02   1.30937997E-06
   2.49899998E-02   1.31470051E-06
   2.52000000E-02   1.30602939E-06
   2.54100002E-02   1.28179920E-06
   2.56200004E-02   1.24044857E-06
   2.58300006E-02   1.18044159E-06
   2.60400008E-02   1.10028714E-06
   2.62499992E-02   9.98561177E-07
   2.64599994E-02   8.73929594E-07
   2.66699996E-02   7.25172185E-07
   2.68799998E-02   5.51207393E-07
   2.70900000E-02   3.51117876E-07
   2.73000002E-02   1.24176267E-07
   2.75100004E-02  -1.30128868E-07
   2.77200006E-02  -4.12067465E-07
   2.79300008E-02  -7.21642607E-07
   2.81399991E-02  -1.05856634E-06
   2.83499993E-02  -1.42223644E-06
   2.85599995E-02  -1.81171504E-06
   2.87699997E-02  -2.22570907E-06
   2.89799999E-02  -2.66255211E-06
   2.91900001E-02  -3.12019188E-06
   2.94000003E-02  -3.59617752E-06
   2.96100006E-02  -4.08765163E-06
   2.98200008E-02  -4.59134571E-06
   3.00299991E-02  -5.10358132E-06
   3.02399993E-02  -5.62027390E-06
   3.04499995E-02  -6.13694147E-06
   3.06599997E-02  -6.64871914E-06
   3.08699999E-02  -7.15037959E-06
   3.10800001E-02  -7.63635489E-06
   3.12899984E-02  -8.10076926E-06
   3.15000005E-02  -8.53747042E-06
   3.17099988E-02  -8.94007462E-06
   3.19200009E-02  -9.30201168E-06
   3.21299993E-02  -9.61657406E-06
   3.23400013E-02  -9.87697331E-06
   3.25499997E-02  -1.00764055E-05
   3.27600017E-02  -1.02081112E-05
   3.29700001E-02  -1.02654458E-05
   3.31799984E-02  -1.02419535E-05
   3.33900005E-02  -1.01314417E-05
   3.35999988E-02  -9.92805690E-06
   3.38100009E-02  -9.62636659E-06
   3.40199992E-02  -9.22143772E-06
   3.42300013E-02  -8.70891472E-06
   3.44399996E-02  -8.08510140E-06
   3.46500017E-02  -7.34703372E-06
   3.48600000E-02  -6.49255890E-06
   3.50699984E-02  -5.52040228E-06
   3.52800004E-02  -4.43023555E-06
   3.54899988E-02  -3.22273422E-06
   3.57000008E-02  -1.89963566E-06
   3.59099992E-02  -4.63781760E-07
   3.61200012E-02   1.08083941E-06
   3.63299996E-02   2.72906550E-06
   3.65400016E-02   4.47454158E-06
   3.67500000E-02   6.30970999E-06
   3.69599983E-02   8.22581387E-06
   3.71700004E-02   1.02129088E-05
   3.73799987E-02   1.22598894E-05
   3.75900008E-02   1.43545312E-05
   3.77999991E-02   1.64835365E-05
   3.80100012E-02   1.86326015E-05
   3.82199995E-02   2.07864941E-05
   3.84300016E-02   2.29291345E-05
   3.86399999E-02   2.50437042E-05
   3.88499983E-02   2.71127556E-05
   3.90600003E-02   2.91183369E-05
   3.92699987E-02   3.10421165E-05
   3.94800007E-02   3.28655369E-05
   3.96899991E-02   3.45699482E-05
   3.99000011E-02   3.61367820E-05
   4.01099995E-02   3.75477066E-05
   4.03200015E-02   3.87847867E-05
   4.05299999E-02   3.98306547E-05
   4.07399982E-02   4.06686777E-05
   4.09500003E-02   4.12831396E-05
   4.11599986E-02   4.16593793E-05
   4.13700007E-02   4.17839728E-05
   4.15799990E-02   4.16448711E-05
   4.17900011E-02   4.12315640E-05
   4.19999994E-02   4.05351966E-05
   4.22100015E-02   3.95487004E-05
   4.24199998E-02   3.82669059E-05
   4.26299982E-02   3.66866298E-05
   4.28400002E-02   3.48067588E-05
   4.30499986E-02   3.26283152E-05
   4.32600006E-02   3.01544878E-05
   4.34699990E-02   2.73906644E-05
   4.36800011E-02   2.43444319E-05
   4.38899994E-02   2.10255457E-05
   4.41000015E-02   1.74459074E-05
   4.43099998E-02   1.36194913E-05
   4.45200019E-02   9.56226086E-06
   4.47300002E-02   5.29207273E-06
   4.49399985E-02   8.28546604E-07
   4.51500006E-02  -3.80707547E-06
   4.53599989E-02  -8.59208831E-06
   4.55700010E-02  -1.35025057E-05
   4.57799993E-02  -1.85132394E-05
   4.59900014E-02  -2.35983152E-05
   4.61999997E-02  -2.87310850E-05
   4.64100018E-02  -3.38844402E-05
   4.66200002E-02  -3.90310524E-05
   4.68299985E-02  -4.41435841E-05
   4.70400006E-02  -4.91949395E-05
   4.72499989E-02  -5.41584814E-05
   4.74600010E-02  -5.90082600E-05
   4.76699993E-02  -6.37192061E-05
   4.78800014E-02  -6.82673635E-05
   4.80899997E-02  -7.26300277E-05
   4.83000018E-02  -7.67859747E-05
   4.85100001E-02  -8.07155666E-05
   4.87199984E-02  -8.44008755E-05
   4.89300005E-02  -8.78258070E-05
   4.91399989E-02  -9.09761729E-05
   4.93500009E-02  -9.38397425E-05
   4.95599993E-02  -9.64062347E-05
   4.97700013E-02  -9.86673331E-05
   4.99799997E-02  -1.00616613E-04
   5.01900017E-02  -1.02249505E-04
   5.04000001E-02  -1.03563165E-04
   5.06099984E-02  -1.04556348E-04
   5.08200005E-02  -1.05229235E-04
   5.10299988E-02  -1.05583269E-04
   5.12400009E-02  -1.05620915E-04
   5.14499992E-02  -1.05345418E-04
   5.16600013E-02  -1.04760569E-04
   5.18699996E-02  -1.03870429E-04
   5.20800017E-02  -1.02679020E-04
   5.22900000E-02  -1.01190075E-04
   5.24999984E-02  -9.94067086E-05
   5.27100004E-02  -9.73311544E-05
   5.29199988E-02  -9.49644455E-05
   5.31300008E-02  -9.23061743E-05
   5.33399992E-02  -8.93542019E-05
   5.35500012E-02  -8.61044609E-05
   5.37599996E-02  -8.25507159E-05
   5.39700016E-02  -7.86844248E-05
   5.41800000E-02  -7.44945573E-05
   5.43899983E-02  -6.99675657E-05
   5.46000004E-02  -6.50872607E-05
   5.48099987E-02  -5.98348925E-05
   5.50200008E-02  -5.41891677E-05
   5.52299991E-02  -4.81263851E-05
   5.54400012E-02  -4.16206276E-05
   5.56499995E-02  -3.46439811E-05
   5.58600016E-02  -2.71668487E-05
   5.60699999E-02  -1.91583276E-05
   5.62799983E-02  -1.05866520E-05
   5.64900003E-02  -1.41966723E-06
   5.66999987E-02   8.37459811E-06
   5.69100007E-02   1.88273225E-05
   5.71199991E-02   2.99682197E-05
   5.73300011E-02   4.18248383E-05
   5.75399995E-02   5.44217946E-05
   5.77500015E-02   6.77799835E-05
   5.79599999E-02   8.19157722E-05
   5.81699982E-02   9.68401291E-05
   5.83800003E-02   1.12557813E-04
   5.85899986E-02   1.29066495E-04
   5.88000007E-02   1.46355960E-04
   5.90099990E-02   1.64407189E-04
   5.92200011E-02   1.83191703E-04
   5.94299994E-02   2.02670708E-04
   5.96400015E-02   2.22794508E-04
   5.98499998E-02   2.43501810E-04
   6.00599982E-02   2.64719129E-04
   6.02700002E-02   2.86360475E-04
   6.04799986E-02   3.08326940E-04
   6.06900007E-02   3.30506358E-04
   6.08999990E-02   3.52773379E-04
   6.11100011E-02   3.74989264E-04
   6.13199994E-02   3.97002266E-04
   6.15300015E-02   4.18647745E-04
   6.17399998E-02   4.39748721E-04
   6.19499981E-02   4.60116426E-04
   6.21600002E-02   4.79551090E-04
   6.23699985E-02   4.97842906E-04
   6.25799969E-02   5.14773128E-04
   6.27899989E-02   5.30115329E-04
   6.30000010E-02   5.43636852E-04
   6.32100031E-02   5.55100152E-04
   6.34199977E-02   5.64265123E-04
   6.36299998E-02   5.70890203E-04
   6.38400018E-02   5.74734819E-04
   6.40499964E-02   5.75561658E-04
   6.42599985E-02   5.73138415E-04
   6.44700006E-02   5.67240466E-04
   6.46800026E-02   5.57653140E-04
   6.48899972E-02   5.44174225E-04
   6.50999993E-02   5.26616350E-04
   6.53100014E-02   5.04809432E-04
   6.55200034E-02   4.78603382E-04
   6.57299981E-02   4.47870349E-04
   6.59400001E-02   4.12507186E-04
   6.61500022E-02   3.72437818E-04
   6.63599968E-02   3.27615446E-04
   6.65699989E-02   2.78024556E-04
   6.67800009E-02   2.23682975E-04
   6.69900030E-02   1.64643498E-04
   6.71999976E-02   1.00995545E-04
   6.74099997E-02   3.28664864E-05
   6.76200017E-02  -3.95772768E-05
   6.78299963E-02  -1.16129457E-04
   6.80399984E-02  -1.96543377E-04
   6.82500005E-02  -2.80531647E-04
   6.84600025E-02  -3.67766363E-04
   6.86699972E-02  -4.57879243E-04
   6.88799992E-02  -5.50462690E-04
   6.90900013E-02  -6.45070511E-04
   6.93000033E-02  -7.41219555E-04
   6.95099980E-02  -8.38391657E-04
   6.97200000E-02  -9.36035183E-04
   6.99300021E-02  -1.03356794E-03
   7.01399967E-02  -1.13037985E-03
   7.03499988E-02  -1.22583634E-03
   7.05600008E-02  -1.31928141E-03
   7.07700029E-02  -1.41004124E-03
   7.09799975E-02  -1.49742886E-03
   7.11899996E-02  -1.58074766E-03
   7.14000016E-02  -1.65929669E-03
   7.16100037E-02  -1.73237477E-03
   7.18199983E-02  -1.79928564E-03
   7.20300004E-02  -1.85934268E-03
   7.22400025E-02  -1.91187439E-03
   7.24499971E-02  -1.95622956E-03
   7.26599991E-02  -1.99178257E-03
   7.28700012E-02  -2.01793783E-03
   7.30800033E-02  -2.03413609E-03
   7.32899979E-02  -2.03985861E-03
   7.34999999E-02  -2.03463295E-03
   7.37100020E-02  -2.01803679E-03
   7.39199966E-02  -1.98970339E-03
   7.41299987E-02  -1.94932509E-03
   7.43400007E-02  -1.89665786E-03
   7.45500028E-02  -1.83152501E-03
   7.47599974E-02  -1.75382011E-03
   7.49699995E-02  -1.66350999E-03
   7.51800016E-02  -1.56063761E-03
   7.53900036E-02  -1.44532369E-03
   7.55999982E-02  -1.31776836E-03
   7.58100003E-02  -1.17825205E-03
   7.60200024E-02  -1.02713658E-03
   7.62299970E-02  -8.64864094E-04
   7.64399990E-02  -6.91957364E-04
   7.66500011E-02  -5.09018253E-04
   7.68600032E-02  -3.16726160E-04
   7.70699978E-02  -1.15835464E-04
   7.72799999E-02   9.28270747E-05
   7.74900019E-02   3.08365794E-04
   7.76999965E-02   5.29819925E-04
   7.79099986E-02   7.56168214E-04
   7.81200007E-02   9.86333587E-04
   7.83300027E-02   1.21918868E-03
   7.85399973E-02   1.45356182E-03
   7.87499994E-02   1.68824301E-03
   7.89600015E-02   1.92199007E-03
   7.91700035E-02   2.15353630E-03
   7.93799981E-02   2.38159765E-03
   7.95900002E-02   2.60487897E-03
   7.98000023E-02   2.82208296E-03
   8.00099969E-02   3.03191738E-03
   8.02199990E-02   3.23310192E-03
   8.04300010E-02   3.42437741E-03
   8.06400031E-02   3.60451383E-03
   8.08499977E-02   3.77231557E-03
   8.10599998E-02   3.92663199E-03
   8.12700018E-02   4.06636298E-03
   8.14799964E-02   4.19046590E-03
   8.16899985E-02   4.29796381E-03
   8.19000006E-02   4.38795146E-03
   8.21100026E-02   4.45960090E-03
   8.23199973E-02   4.51216754E-03
   8.25299993E-02   4.54499526E-03
   8.27400014E-02   4.55752201E-03
   8.29500034E-02   4.54928214E-03
   8.31599981E-02   4.51991241E-03
   8.33700001E-02   4.46915394E-03
   8.35800022E-02   4.39685304E-03
   8.37899968E-02   4.30296501E-03
   8.39999989E-02   4.18755645E-03
   8.42100009E-02   4.05080197E-03
   8.44200030E-02   3.89298680E-03
   8.46299976E-02   3.71450512E-03
   8.48399997E-02   3.51585867E-03
   8.50500017E-02   3.29765445E-03
   8.52599964E-02   3.06060258E-03
   8.54699984E-02   2.80551193E-03
   8.56800005E-02   2.53328704E-03
   8.58900025E-02   2.24492280E-03
   8.60999972E-02   1.94149977E-03
   8.63099992E-02   1.62417861E-03
   8.65200013E-02   1.29419414E-03
   8.67300034E-02   9.52848408E-04
   8.69399980E-02   6.01504405E-04
   8.71500000E-02   2.41578353E-04
   8.73600021E-02  -1.25467239E-04
   8.75699967E-02  -4.98131732E-04
   8.77799988E-02  -8.74883903E-04
   8.79900008E-02  -1.25416997E-03
   8.82000029E-02  -1.63442187E-03
   8.84099975E-02  -2.01406539E-03
   8.86199996E-02  -2.39152787E-03
   8.88300017E-02  -2.76524737E-03
   8.90400037E-02  -3.13367834E-03
   8.92499983E-02  -3.49530182E-03
   8.94600004E-02  -3.84863187E-03
   8.96700025E-02  -4.19222284E-03
   8.98799971E-02  -4.52467566E-03
   9.00899991E-02  -4.84464550E-03
   9.03000012E-02  -5.15084807E-03
   9.05100033E-02  -5.44206286E-03
   9.07199979E-02  -5.71714342E-03
   9.09299999E-02  -5.97501686E-03
   9.11400020E-02  -6.21469086E-03
   9.13499966E-02  -6.43525831E-03
   9.15599987E-02  -6.63589733E-03
   9.17700008E-02  -6.81587867E-03
   9.19800028E-02  -6.97456254E-03
   9.21899974E-02  -7.11140456E-03
   9.23999995E-02  -7.22595304E-03
   9.26100016E-02  -7.31785316E-03
   9.28200036E-02  -7.38684414E-03
   9.30299982E-02  -7.43275788E-03
   9.32400003E-02  -7.45552126E-03
   9.34500024E-02  -7.45515060E-03
   9.36599970E-02  -7.43175019E-03
   9.38699991E-02  -7.38551049E-03
   9.40800011E-02  -7.31670484E-03
   9.42900032E-02  -7.22568529E-03
   9.44999978E-02  -7.11287698E-03
   9.47099999E-02  -6.97877677E-03
   9.49200019E-02  -6.82394719E-03
   9.51299965E-02  -6.64901081E-03
   9.53399986E-02  -6.45464379E-03
   9.55500007E-02  -6.24157256E-03
   9.57600027E-02  -6.01056777E-03
   9.59699973E-02  -5.76243736E-03
   9.61799994E-02  -5.49802184E-03
   9.63900015E-02  -5.21818781E-03
   9.66000035E-02  -4.92382189E-03
   9.68099982E-02  -4.61582653E-03
   9.70200002E-02  -4.29511070E-03
   9.72300023E-02  -3.96258850E-03
   9.74399969E-02  -3.61917028E-03
   9.76499990E-02  -3.26576084E-03
   9.78600010E-02  -2.90325144E-03
   9.80700031E-02  -2.53251730E-03
   9.82799977E-02  -2.15441198E-03
   9.84899998E-02  -1.76976470E-03
   9.87000018E-02  -1.37937593E-03
   9.89099964E-02  -9.84014827E-04
   9.91199985E-02  -5.84416615E-04
   9.93300006E-02  -1.81280338E-04
   9.95400026E-02   2.24732983E-04
   9.97499973E-02   6.33001036E-04
   9.99599993E-02   1.04294124E-03
  0.100170001       1.45401072E-03
  0.100380003       1.86570594E-03
  0.100589998       2.27756216E-03
  0.100800000       2.68915086E-03
  0.101010002       3.10007948E-03
  0.101219997       3.50998831E-03
  0.101429999       3.91854672E-03
  0.101640001       4.32545086E-03
  0.101850003       4.73042112E-03
  0.102059998       5.13319485E-03
  0.102270000       5.53352525E-03
  0.102480002       5.93117392E-03
  0.102689996       6.32590801E-03
  0.102899998       6.71749329E-03
  0.103110000       7.10568996E-03
  0.103320003       7.49024609E-03
  0.103529997       7.87089206E-03
  0.103739999       8.24733451E-03
  0.103950001       8.61925259E-03
  0.104160003       8.98629148E-03
  0.104369998       9.34805349E-03
  0.104580000       9.70409811E-03
  0.104790002       1.00539336E-02
  0.104999997       1.03970133E-02
  0.105209999       1.07327318E-02
  0.105420001       1.10604195E-02
  0.105630003       1.13793407E-02
  0.105839998       1.16886897E-02
  0.106050000       1.19875874E-02
  0.106260002       1.22750821E-02
  0.106470004       1.25501482E-02
  0.106679998       1.28116831E-02
  0.106890000       1.30585125E-02
  0.107100002       1.32893845E-02
  0.107309997       1.35029787E-02
  0.107519999       1.36979036E-02
  0.107730001       1.38727045E-02
  0.107940003       1.40258661E-02
  0.108149998       1.41558163E-02
  0.108360000       1.42609365E-02
  0.108570002       1.43395644E-02
  0.108779997       1.43900039E-02
  0.108989999       1.44105349E-02
  0.109200001       1.43994177E-02
  0.109410003       1.43549107E-02
  0.109619997       1.42752761E-02
  0.109830000       1.41587900E-02
  0.110040002       1.40037611E-02
  0.110250004       1.38085354E-02
  0.110459998       1.35715147E-02
  0.110670000       1.32911671E-02
  0.110880002       1.29660424E-02
  0.111089997       1.25947837E-02
  0.111299999       1.21761439E-02
  0.111510001       1.17089963E-02
  0.111720003       1.11923506E-02
  0.111929998       1.06253671E-02
  0.112140000       1.00073665E-02
  0.112350002       9.33784898E-03
  0.112559997       8.61649867E-03
  0.112769999       7.84320384E-03
  0.112980001       7.01806089E-03
  0.113190003       6.14138879E-03
  0.113399997       5.21373609E-03
  0.113609999       4.23589116E-03
  0.113820001       3.20889009E-03
  0.114030004       2.13402044E-03
  0.114239998       1.01282937E-03
  0.114450000      -1.52873748E-04
  0.114660002      -1.36101607E-03
  0.114869997      -2.60925805E-03
  0.115079999      -3.89499404E-03
  0.115290001      -5.21535473E-03
  0.115500003      -6.56721042E-03
  0.115709998      -7.94717297E-03
  0.115920000      -9.35160741E-03
  0.116130002      -1.07766306E-02
  0.116339996      -1.22181308E-02
  0.116549999      -1.36717670E-02
  0.116760001      -1.51329879E-02
  0.116970003      -1.65970474E-02
  0.117179997      -1.80590041E-02
  0.117389999      -1.95137523E-02
  0.117600001      -2.09560338E-02
  0.117810003      -2.23804526E-02
  0.118019998      -2.37814877E-02
  0.118230000      -2.51535270E-02
  0.118440002      -2.64908746E-02
  0.118649997      -2.77877692E-02
  0.118859999      -2.90384106E-02
  0.119070001      -3.02369893E-02
  0.119280003      -3.13776843E-02
  0.119489998      -3.24547105E-02
  0.119700000      -3.34623083E-02
  0.119910002      -3.43947895E-02
  0.120119996      -3.52465436E-02
  0.120329998      -3.60120647E-02
  0.120540000      -3.66859660E-02
  0.120750003      -3.72629985E-02
  0.120959997      -3.77380550E-02
  0.121169999      -3.81062068E-02
  0.121380001      -3.83627117E-02
  0.121590003      -3.85030173E-02
  0.121799998      -3.85227688E-02
  0.122010000      -3.84178385E-02
  0.122220002      -3.81843224E-02
  0.122429997      -3.78185473E-02
  0.122639999      -3.73170748E-02
  0.122850001      -3.66767049E-02
  0.123060003      -3.58944833E-02
  0.123269998      -3.49676907E-02
  0.123480000      -3.38938460E-02
  0.123690002      -3.26707102E-02
  0.123899996      -3.12962681E-02
  0.124109998      -2.97687203E-02
  0.124320000      -2.80864928E-02
  0.124530002      -2.62482092E-02
  0.124739997      -2.42526848E-02
  0.124949999      -2.20989157E-02
  0.125159994      -1.97860617E-02
  0.125369996      -1.73134301E-02
  0.125579998      -1.46804666E-02
  0.125790000      -1.18867271E-02
  0.126000002      -8.93186592E-03
  0.126210004      -5.81561448E-03
  0.126420006      -2.53777276E-03
  0.126629993       9.01821651E-04
  0.126839995       4.50331019E-03
  0.127049997       8.26683268E-03
  0.127260000       1.21925380E-02
  0.127470002       1.62806101E-02
  0.127680004       2.05312930E-02
  0.127890006       2.49448903E-02
  0.128099993       2.95218024E-02
  0.128309995       3.42625156E-02
  0.128519997       3.91676389E-02
  0.128729999       4.42379080E-02
  0.128940001       4.94741946E-02
  0.129150003       5.48775271E-02
  0.129360005       6.04490899E-02
  0.129570007       6.61902279E-02
  0.129779994       7.21024424E-02
  0.129989997       7.81874284E-02
  0.130199999       8.44470486E-02
  0.130410001       9.08833295E-02
  0.130620003       9.74984840E-02
  0.130830005      0.104294889    
  0.131040007      0.111275055    
  0.131249994      0.118441671    
  0.131459996      0.125797570    
  0.131669998      0.133345693    
  0.131880000      0.141089097    
  0.132090002      0.149030939    
  0.132300004      0.157174483    
  0.132510006      0.165523022    
  0.132719994      0.174079925    
  0.132929996      0.182848543    
  0.133139998      0.191832259    
  0.133350000      0.201034456    
  0.133560002      0.210458428    
  0.133770004      0.220107406    
  0.133980006      0.229984522    
  0.134189993      0.240092799    
  0.134399995      0.250435054    
  0.134609997      0.261014044    
  0.134819999      0.271832198    
  0.135030001      0.282891840    
  0.135240003      0.294194937    
  0.135450006      0.305743158    
  0.135659993      0.317537993    
  0.135869995      0.329580545    
  0.136079997      0.341871560    
  0.136289999      0.354411423    
  0.136500001      0.367200106    
  0.136710003      0.380237252    
  0.136920005      0.393521994    
  0.137130007      0.407053083    
  0.137339994      0.420828849    
  0.137549996      0.434847087    
  0.137759998      0.449105203    
  0.137970001      0.463599980    
  0.138180003      0.478327900    
  0.138390005      0.493284851    
  0.138600007      0.508466244    
  0.138809994      0.523867071    
  0.139019996      0.539481759    
  0.139229998      0.555304289    
  0.139440000      0.571328223    
  0.139650002      0.587546587    
  0.139860004      0.603951991    
  0.140070006      0.620536625    
  0.140279993      0.637292266    
  0.140489995      0.654210269    
  0.140699998      0.671281636    
  0.140910000      0.688496947    
  0.141120002      0.705846608    
  0.141330004      0.723320544    
  0.141540006      0.740908444    
  0.141749993      0.758599818    
  0.141959995      0.776383758    
  0.142169997      0.794249415    
  0.142379999      0.812185645    
  0.142590001      0.830181122    
  0.142800003      0.848224580    
  0.143010005      0.866304457    
  0.143220007      0.884409368    
  0.143429995      0.902527809    
  0.143639997      0.920648336    
  0.143849999      0.938759625    
  0.144060001      0.956850469    
  0.144270003      0.974909604    
  0.144480005      0.992926061    
  0.144690007       1.01088929    
  0.144899994       1.02878869    
  0.145109996       1.04661393    
  0.145319998       1.06435502    
  0.145530000       1.08200240    
  0.145740002       1.09954691    
  0.145950004       1.11697972    
  0.146160007       1.13429213    
  0.146369994       1.15147614    
  0.146579996       1.16852427    
  0.146789998       1.18542922    
  0.147000000       1.20218444    
  0.147210002       1.21878397    
  0.147420004       1.23522222    
  0.147630006       1.25149393    
  0.147839993       1.26759470    
  0.148049995       1.28352058    
  0.148259997       1.29926836    
  0.148469999       1.31483495    
  0.148680001       1.33021832    
  0.148890004       1.34541667    
  0.149100006       1.36042893    
  0.149309993       1.37525463    
  0.149519995       1.38989389    
  0.149729997       1.40434706    
  0.149939999       1.41861522    
  0.150150001       1.43270016    
  0.150360003       1.44660401    
  0.150570005       1.46032917    
  0.150780007       1.47387898    
  0.150989994       1.48725688    
  0.151199996       1.50046706    
  0.151409999       1.51351368    
  0.151620001       1.52640140    
  0.151830003       1.53913558    
  0.152040005       1.55172169    
  0.152250007       1.56416535    
  0.152459994       1.57647276    
  0.152669996       1.58865011    
  0.152879998       1.60070372    
  0.153090000       1.61264026    
  0.153300002       1.62446678    
  0.153510004       1.63619006    
  0.153720006       1.64781690    
  0.153929994       1.65935457    
  0.154139996       1.67081010    
  0.154349998       1.68219054    
  0.154560000       1.69350302    
  0.154770002       1.70475435    
  0.154980004       1.71595156    
  0.155190006       1.72710133    
  0.155399993       1.73821020    
  0.155609995       1.74928474    
  0.155819997       1.76033103    
  0.156029999       1.77135527    
  0.156240001       1.78236318    
  0.156450003       1.79336011    
  0.156660005       1.80435145    
  0.156869993       1.81534207    
  0.157079995       1.82633674    
  0.157289997       1.83733976    
  0.157499999       1.84835541    
  0.157710001       1.85938716    
  0.157920003       1.87043834    
  0.158130005       1.88151217    
  0.158340007       1.89261127    
  0.158549994       1.90373790    
  0.158759996       1.91489422    
  0.158969998       1.92608190    
  0.159180000       1.93730259    
  0.159390002       1.94855714    
  0.159600005       1.95984638    
  0.159810007       1.97117102    
  0.160019994       1.98253107    
  0.160229996       1.99392653    
  0.160439998       2.00535727    
  0.160650000       2.01682258    
  0.160860002       2.02832198    
  0.161070004       2.03985429    
  0.161280006       2.05141854    
  0.161489993       2.06301355    
  0.161699995       2.07463765    
  0.161909997       2.08628988    
  0.162120000       2.09796834    
  0.162330002       2.10967112    
  0.162540004       2.12139630    
  0.162750006       2.13314271    
  0.162959993       2.14490795    
  0.163169995       2.15669060    
  0.163379997       2.16848826    
  0.163589999       2.18029928    
  0.163800001       2.19212222    
  0.164010003       2.20395446    
  0.164220005       2.21579504    
  0.164430007       2.22764230    
  0.164639995       2.23949456    
  0.164849997       2.25135040    
  0.165059999       2.26320791    
  0.165270001       2.27506661    
  0.165480003       2.28692484    
  0.165690005       2.29878163    
  0.165900007       2.31063652    
  0.166109994       2.32248807    
  0.166319996       2.33433580    
  0.166529998       2.34617925    
  0.166740000       2.35801768    
  0.166950002       2.36985111    
  0.167160004       2.38167882    
  0.167370006       2.39350128    
  0.167579994       2.40531778    
  0.167789996       2.41712880    
  0.167999998       2.42893434    
  0.168210000       2.44073439    
  0.168420002       2.45252943    
  0.168630004       2.46431971    
  0.168840006       2.47610593    
  0.169049993       2.48788786    
  0.169259995       2.49966598    
  0.169469997       2.51144075    
  0.169679999       2.52321243    
  0.169890001       2.53498125    
  0.170100003       2.54674816    
  0.170310006       2.55851316    
  0.170519993       2.57027626    
  0.170729995       2.58203745    
  0.170939997       2.59379721    
  0.171149999       2.60555553    
  0.171360001       2.61731219    
  0.171570003       2.62906694    
  0.171780005       2.64081979    
  0.171990007       2.65257001    
  0.172199994       2.66431737    
  0.172409996       2.67606091    
  0.172619998       2.68779969    
  0.172830001       2.69953299    
  0.173040003       2.71125960    
  0.173250005       2.72297835    
  0.173460007       2.73468757    
  0.173669994       2.74638581    
  0.173879996       2.75807095    
  0.174089998       2.76974154    
  0.174300000       2.78139520    
  0.174510002       2.79302955    
  0.174720004       2.80464244    
  0.174930006       2.81623101    
  0.175139993       2.82779264    
  0.175349995       2.83932424    
  0.175559998       2.85082269    
  0.175770000       2.86228490    
  0.175980002       2.87370753    
  0.176190004       2.88508725    
  0.176400006       2.89642048    
  0.176609993       2.90770388    
  0.176819995       2.91893363    
  0.177029997       2.93010592    
  0.177239999       2.94121671    
  0.177450001       2.95226264    
  0.177660003       2.96323943    
  0.177870005       2.97414303    
  0.178080007       2.98496938    
  0.178289995       2.99571443    
  0.178499997       3.00637484    
  0.178709999       3.01694584    
  0.178920001       3.02742410    
  0.179130003       3.03780532    
  0.179340005       3.04808593    
  0.179550007       3.05826259    
  0.179759994       3.06833148    