   0.00000000       0.00000000    
   2.09999998E-04   0.00000000    
   4.19999997E-04   0.00000000    
   6.30000024E-04   0.00000000    
   8.39999993E-04  -2.72332363E-18
   1.04999996E-03  -2.76125974E-17
   1.26000005E-03  -1.51026001E-16
   1.47000002E-03  -5.94067669E-16
   1.67999999E-03  -1.88567216E-15
   1.88999996E-03  -5.13398147E-15
   2.09999993E-03  -1.24432494E-14
   2.30999989E-03  -2.75160855E-14
   2.52000010E-03  -5.64813902E-14
   2.73000007E-03  -1.08986510E-13
   2.94000003E-03  -1.99587810E-13
   3.15000000E-03  -3.49466333E-13
   3.35999997E-03  -5.88485586E-13
   3.56999994E-03  -9.57594681E-13
   3.77999991E-03  -1.51156496E-12
   3.99000011E-03  -2.32202864E-12
   4.19999985E-03  -3.48076624E-12
   4.41000005E-03  -5.10317049E-12
   4.61999979E-03  -7.33178535E-12
   4.82999999E-03  -1.03397907E-11
   5.04000019E-03  -1.43342924E-11
   5.24999993E-03  -1.95592258E-11
   5.46000013E-03  -2.62976828E-11
   5.66999987E-03  -3.48734548E-11
   5.88000007E-03  -4.56515173E-11
   6.08999981E-03  -5.90372126E-11
   6.30000001E-03  -7.54739118E-11
   6.51000021E-03  -9.54388096E-11
   6.71999995E-03  -1.19436655E-10
   6.93000015E-03  -1.47991203E-10
   7.13999989E-03  -1.81634013E-10
   7.35000009E-03  -2.20890556E-10
   7.55999982E-03  -2.66263456E-10
   7.77000003E-03  -3.18212623E-10
   7.98000023E-03  -3.77132547E-10
   8.19000043E-03  -4.43326209E-10
   8.39999970E-03  -5.16976628E-10
   8.60999990E-03  -5.98115446E-10
   8.82000010E-03  -6.86589396E-10
   9.03000031E-03  -7.82024334E-10
   9.23999958E-03  -8.83788820E-10
   9.44999978E-03  -9.90956428E-10
   9.65999998E-03  -1.10226850E-09
   9.87000018E-03  -1.21609811E-09
   1.00800004E-02  -1.33041611E-09
   1.02899997E-02  -1.44276013E-09
   1.04999999E-02  -1.55020963E-09
   1.07100001E-02  -1.64936587E-09
   1.09200003E-02  -1.73633974E-09
   1.11300005E-02  -1.80674986E-09
   1.13399997E-02  -1.85573046E-09
   1.15499999E-02  -1.87795157E-09
   1.17600001E-02  -1.86765448E-09
   1.19700003E-02  -1.81870174E-09
   1.21799996E-02  -1.72464543E-09
   1.23899998E-02  -1.57881297E-09
   1.26000000E-02  -1.37441303E-09
   1.28100002E-02  -1.10466170E-09
   1.30200004E-02  -7.62929997E-10
   1.32299997E-02  -3.42913253E-10
   1.34399999E-02   1.61178626E-10
   1.36500001E-02   7.54410090E-10
   1.38600003E-02   1.44088808E-09
   1.40699996E-02   2.22351293E-09
   1.42799998E-02   3.10371218E-09
   1.44900000E-02   4.08116163E-09
   1.47000002E-02   5.15349585E-09
   1.49100004E-02   6.31601260E-09
   1.51199996E-02   7.56137464E-09
   1.53299998E-02   8.87931773E-09
   1.55400001E-02   1.02563673E-08
   1.57500003E-02   1.16755690E-08
   1.59600005E-02   1.31162485E-08
   1.61700007E-02   1.45537955E-08
   1.63800009E-02   1.59594933E-08
   1.65899992E-02   1.73003976E-08
   1.67999994E-02   1.85392643E-08
   1.70099996E-02   1.96345447E-08
   1.72199998E-02   2.05404636E-08
   1.74300000E-02   2.12071765E-08
   1.76400002E-02   2.15810090E-08
   1.78500004E-02   2.16048086E-08
   1.80600006E-02   2.12184030E-08
   1.82700008E-02   2.03591615E-08
   1.84799992E-02   1.89626803E-08
   1.86899994E-02   1.69635896E-08
   1.88999996E-02   1.42964849E-08
   1.91099998E-02   1.08969864E-08
   1.93200000E-02   6.70291378E-09
   1.95300002E-02   1.65558078E-09
   1.97400004E-02  -4.29878932E-09
   1.99500006E-02  -1.12075513E-08
   2.01600008E-02  -1.91100256E-08
   2.03699991E-02  -2.80358154E-08
   2.05799993E-02  -3.80030478E-08
   2.07899995E-02  -4.90166023E-08
   2.09999997E-02  -6.10662667E-08
   2.12099999E-02  -7.41249409E-08
   2.14200001E-02  -8.81468694E-08
   2.16300003E-02  -1.03065936E-07
   2.18400005E-02  -1.18794013E-07
   2.20500007E-02  -1.35219508E-07
   2.22600009E-02  -1.52206013E-07
   2.24699993E-02  -1.69591260E-07
   2.26799995E-02  -1.87186174E-07
   2.28899997E-02  -2.04774310E-07
   2.30999999E-02  -2.22111652E-07
   2.33100001E-02  -2.38926589E-07
   2.35200003E-02  -2.54920536E-07
   2.37300005E-02  -2.69768833E-07
   2.39400007E-02  -2.83122063E-07
   2.41500009E-02  -2.94607958E-07
   2.43599992E-02  -3.03833929E-07
   2.45699994E-02  -3.10389794E-07
   2.47799996E-02  -3.13851473E-07
   2.49899998E-02  -3.13784909E-07
   2.52000000E-02  -3.09750760E-07
   2.54100002E-02  -3.01309370E-07
   2.56200004E-02  -2.88026712E-07
   2.58300006E-02  -2.69480438E-07
   2.60400008E-02  -2.45266563E-07
   2.62499992E-02  -2.15006651E-07
   2.64599994E-02  -1.78355151E-07
   2.66699996E-02  -1.35007312E-07
   2.68799998E-02  -8.47072741E-08
   2.70900000E-02  -2.72561724E-08
   2.73000002E-02   3.74795732E-08
   2.75100004E-02   1.09559956E-07
   2.77200006E-02   1.88963327E-07
   2.79300008E-02   2.75578543E-07
   2.81399991E-02   3.69197551E-07
   2.83499993E-02   4.69508251E-07
   2.85599995E-02   5.76088439E-07
   2.87699997E-02   6.88400121E-07
   2.89799999E-02   8.05784794E-07
   2.91900001E-02   9.27460178E-07
   2.94000003E-02   1.05251740E-06
   2.96100006E-02   1.17992010E-06
   2.98200008E-02   1.30850492E-06
   3.00299991E-02   1.43698333E-06
   3.02399993E-02   1.56394481E-06
   3.04499995E-02   1.68786232E-06
   3.06599997E-02   1.80709958E-06
   3.08699999E-02   1.91991990E-06
   3.10800001E-02   2.02449655E-06
   3.12899984E-02   2.11892643E-06
   3.15000005E-02   2.20124411E-06
   3.17099988E-02   2.26943848E-06
   3.19200009E-02   2.32147136E-06
   3.21299993E-02   2.35529797E-06
   3.23400013E-02   2.36888854E-06
   3.25499997E-02   2.36025153E-06
   3.27600017E-02   2.32745924E-06
   3.29700001E-02   2.26867269E-06
   3.31799984E-02   2.18216974E-06
   3.33900005E-02   2.06637242E-06
   3.35999988E-02   1.91987465E-06
   3.38100009E-02   1.74147158E-06
   3.40199992E-02   1.53018664E-06
   3.42300013E-02   1.28530087E-06
   3.44399996E-02   1.00637919E-06
   3.46500017E-02   6.93295874E-07
   3.48600000E-02   3.46260094E-07
   3.50699984E-02  -3.41624009E-08
   3.52800004E-02  -4.47028782E-07
   3.54899988E-02  -8.91001321E-07
   3.57000008E-02  -1.36433266E-06
   3.59099992E-02  -1.86485477E-06
   3.61200012E-02  -2.38997109E-06
   3.63299996E-02  -2.93665266E-06
   3.65400016E-02  -3.50143864E-06
   3.67500000E-02  -4.08044207E-06
   3.69599983E-02  -4.66935808E-06
   3.71700004E-02  -5.26348094E-06
   3.73799987E-02  -5.85772159E-06
   3.75900008E-02  -6.44663396E-06
   3.77999991E-02  -7.02444413E-06
   3.80100012E-02  -7.58508622E-06
   3.82199995E-02  -8.12224152E-06
   3.84300016E-02  -8.62938668E-06
   3.86399999E-02  -9.09983919E-06
   3.88499983E-02  -9.52681512E-06
   3.90600003E-02  -9.90348690E-06
   3.92699987E-02  -1.02230460E-05
   3.94800007E-02  -1.04787659E-05
   3.96899991E-02  -1.06640755E-05
   3.99000011E-02  -1.07726237E-05
   4.01099995E-02  -1.07983587E-05
   4.03200015E-02  -1.07355963E-05
   4.05299999E-02  -1.05790932E-05
   4.07399982E-02  -1.03241264E-05
   4.09500003E-02  -9.96656036E-06
   4.11599986E-02  -9.50291633E-06
   4.13700007E-02  -8.93044489E-06
   4.15799990E-02  -8.24718427E-06
   4.17900011E-02  -7.45202442E-06
   4.19999994E-02  -6.54476025E-06
   4.22100015E-02  -5.52613938E-06
   4.24199998E-02  -4.39790574E-06
   4.26299982E-02  -3.16283308E-06
   4.28400002E-02  -1.82475344E-06
   4.30499986E-02  -3.88574250E-07
   4.32600006E-02   1.13971180E-06
   4.34699990E-02   2.75302727E-06
   4.36800011E-02   4.44321904E-06
   4.38899994E-02   6.20107903E-06
   4.41000015E-02   8.01637634E-06
   4.43099998E-02   9.87789554E-06
   4.45200019E-02   1.17734899E-05
   4.47300002E-02   1.36901435E-05
   4.49399985E-02   1.56140413E-05
   4.51500006E-02   1.75306523E-05
   4.53599989E-02   1.94248205E-05
   4.55700010E-02   2.12808663E-05
   4.57799993E-02   2.30826918E-05
   4.59900014E-02   2.48138949E-05
   4.61999997E-02   2.64578994E-05
   4.64100018E-02   2.79980741E-05
   4.66200002E-02   2.94178681E-05
   4.68299985E-02   3.07009468E-05
   4.70400006E-02   3.18313359E-05
   4.72499989E-02   3.27935486E-05
   4.74600010E-02   3.35727455E-05
   4.76699993E-02   3.41548439E-05
   4.78800014E-02   3.45266853E-05
   4.80899997E-02   3.46761481E-05
   4.83000018E-02   3.45922817E-05
   4.85100001E-02   3.42654203E-05
   4.87199984E-02   3.36873127E-05
   4.89300005E-02   3.28512106E-05
   4.91399989E-02   3.17519698E-05
   4.93500009E-02   3.03861380E-05
   4.95599993E-02   2.87520270E-05
   4.97700013E-02   2.68497715E-05
   4.99799997E-02   2.46813852E-05
   5.01900017E-02   2.22507788E-05
   5.04000001E-02   1.95637986E-05
   5.06099984E-02   1.66282171E-05
   5.08200005E-02   1.34537331E-05
   5.10299988E-02   1.00519501E-05
   5.12400009E-02   6.43633530E-06
   5.14499992E-02   2.62216440E-06
   5.16600013E-02  -1.37353845E-06
   5.18699996E-02  -5.53208292E-06
   5.20800017E-02  -9.83320297E-06
   5.22900000E-02  -1.42551617E-05
   5.24999984E-02  -1.87748628E-05
   5.27100004E-02  -2.33679802E-05
   5.29199988E-02  -2.80091008E-05
   5.31300008E-02  -3.26718400E-05
   5.33399992E-02  -3.73290131E-05
   5.35500012E-02  -4.19527823E-05
   5.37599996E-02  -4.65148187E-05
   5.39700016E-02  -5.09864622E-05
   5.41800000E-02  -5.53388818E-05
   5.43899983E-02  -5.95432430E-05
   5.46000004E-02  -6.35708711E-05
   5.48099987E-02  -6.73933973E-05
   5.50200008E-02  -7.09829401E-05
   5.52299991E-02  -7.43122509E-05
   5.54400012E-02  -7.73548309E-05
   5.56499995E-02  -8.00851340E-05
   5.58600016E-02  -8.24786403E-05
   5.60699999E-02  -8.45120376E-05
   5.62799983E-02  -8.61632871E-05
   5.64900003E-02  -8.74117832E-05
   5.66999987E-02  -8.82384193E-05
   5.69100007E-02  -8.86257112E-05
   5.71199991E-02  -8.85578629E-05
   5.73300011E-02  -8.80208681E-05
   5.75399995E-02  -8.70025251E-05
   5.77500015E-02  -8.54925602E-05
   5.79599999E-02  -8.34826496E-05
   5.81699982E-02  -8.09664853E-05
   5.83800003E-02  -7.79397742E-05
   5.85899986E-02  -7.44003337E-05
   5.88000007E-02  -7.03480691E-05
   5.90099990E-02  -6.57850178E-05
   5.92200011E-02  -6.07153961E-05
   5.94299994E-02  -5.51455887E-05
   5.96400015E-02  -4.90841849E-05
   5.98499998E-02  -4.25419748E-05
   6.00599982E-02  -3.55320044E-05
   6.02700002E-02  -2.80695658E-05
   6.04799986E-02  -2.01722141E-05
   6.06900007E-02  -1.18597991E-05
   6.08999990E-02  -3.15447005E-06
   6.11100011E-02   5.91929484E-06
   6.13199994E-02   1.53346773E-05
   6.15300015E-02   2.50624998E-05
   6.17399998E-02   3.50712071E-05
   6.19499981E-02   4.53268513E-05
   6.21600002E-02   5.57930834E-05
   6.23699985E-02   6.64311519E-05
   6.25799969E-02   7.71998893E-05
   6.27899989E-02   8.80557200E-05
   6.30000010E-02   9.89526889E-05
   6.32100031E-02   1.09842469E-04
   6.34199977E-02   1.20674427E-04
   6.36299998E-02   1.31395645E-04
   6.38400018E-02   1.41951023E-04
   6.40499964E-02   1.52283363E-04
   6.42599985E-02   1.62333454E-04
   6.44700006E-02   1.72040265E-04
   6.46800026E-02   1.81341020E-04
   6.48899972E-02   1.90171486E-04
   6.50999993E-02   1.98466121E-04
   6.53100014E-02   2.06158380E-04
   6.55200034E-02   2.13180858E-04
   6.57299981E-02   2.19465786E-04
   6.59400001E-02   2.24945295E-04
   6.61500022E-02   2.29551762E-04
   6.63599968E-02   2.33218248E-04
   6.65699989E-02   2.35878892E-04
   6.67800009E-02   2.37469503E-04
   6.69900030E-02   2.37927932E-04
   6.71999976E-02   2.37194676E-04
   6.74099997E-02   2.35213403E-04
   6.76200017E-02   2.31931510E-04
   6.78299963E-02   2.27300770E-04
   6.80399984E-02   2.21277893E-04
   6.82500005E-02   2.13825129E-04
   6.84600025E-02   2.04910917E-04
   6.86699972E-02   1.94510489E-04
   6.88799992E-02   1.82606454E-04
   6.90900013E-02   1.69189399E-04
   6.93000033E-02   1.54258509E-04
   6.95099980E-02   1.37822048E-04
   6.97200000E-02   1.19897864E-04
   6.99300021E-02   1.00513927E-04
   7.01399967E-02   7.97086614E-05
   7.03499988E-02   5.75313497E-05
   7.05600008E-02   3.40424231E-05
   7.07700029E-02   9.31368868E-06
   7.09799975E-02  -1.65715392E-05
   7.11899996E-02  -4.35183574E-05
   7.14000016E-02  -7.14203197E-05
   7.16100037E-02  -1.00159530E-04
   7.18199983E-02  -1.29606837E-04
   7.20300004E-02  -1.59622228E-04
   7.22400025E-02  -1.90055172E-04
   7.24499971E-02  -2.20745249E-04
   7.26599991E-02  -2.51522666E-04
   7.28700012E-02  -2.82209163E-04
   7.30800033E-02  -3.12618678E-04
   7.32899979E-02  -3.42558487E-04
   7.34999999E-02  -3.71830189E-04
   7.37100020E-02  -4.00230841E-04
   7.39199966E-02  -4.27554362E-04
   7.41299987E-02  -4.53592598E-04
   7.43400007E-02  -4.78137081E-04
   7.45500028E-02  -5.00980183E-04
   7.47599974E-02  -5.21917013E-04
   7.49699995E-02  -5.40746783E-04
   7.51800016E-02  -5.57274499E-04
   7.53900036E-02  -5.71312557E-04
   7.55999982E-02  -5.82682609E-04
   7.58100003E-02  -5.91216900E-04
   7.60200024E-02  -5.96760481E-04
   7.62299970E-02  -5.99172199E-04
   7.64399990E-02  -5.98326616E-04
   7.66500011E-02  -5.94115292E-04
   7.68600032E-02  -5.86448587E-04
   7.70699978E-02  -5.75256592E-04
   7.72799999E-02  -5.60490473E-04
   7.74900019E-02  -5.42123627E-04
   7.76999965E-02  -5.20152564E-04
   7.79099986E-02  -4.94597829E-04
   7.81200007E-02  -4.65504301E-04
   7.83300027E-02  -4.32942092E-04
   7.85399973E-02  -3.97006486E-04
   7.87499994E-02  -3.57818208E-04
   7.89600015E-02  -3.15523095E-04
   7.91700035E-02  -2.70292046E-04
   7.93799981E-02  -2.22320174E-04
   7.95900002E-02  -1.71826294E-04
   7.98000023E-02  -1.19051860E-04
   8.00099969E-02  -6.42597588E-05
   8.02199990E-02  -7.73301144E-06
   8.04300010E-02   5.02268886E-05
   8.06400031E-02   1.09301640E-04
   8.08499977E-02   1.69158171E-04
   8.10599998E-02   2.29450743E-04
   8.12700018E-02   2.89823191E-04
   8.14799964E-02   3.49911366E-04
   8.16899985E-02   4.09345492E-04
   8.19000006E-02   4.67753125E-04
   8.21100026E-02   5.24761621E-04
   8.23199973E-02   5.80000924E-04
   8.25299993E-02   6.33106392E-04
   8.27400014E-02   6.83721679E-04
   8.29500034E-02   7.31501495E-04
   8.31599981E-02   7.76114292E-04
   8.33700001E-02   8.17245222E-04
   8.35800022E-02   8.54598416E-04
   8.37899968E-02   8.87899892E-04
   8.39999989E-02   9.16899648E-04
   8.42100009E-02   9.41373641E-04
   8.44200030E-02   9.61126469E-04
   8.46299976E-02   9.75992822E-04
   8.48399997E-02   9.85839055E-04
   8.50500017E-02   9.90564818E-04
   8.52599964E-02   9.90103814E-04
   8.54699984E-02   9.84424958E-04
   8.56800005E-02   9.73532791E-04
   8.58900025E-02   9.57467826E-04
   8.60999972E-02   9.36306489E-04
   8.63099992E-02   9.10160947E-04
   8.65200013E-02   8.79178173E-04
   8.67300034E-02   8.43539485E-04
   8.69399980E-02   8.03458795E-04
   8.71500000E-02   7.59181450E-04
   8.73600021E-02   7.10982480E-04
   8.75699967E-02   6.59164274E-04
   8.77799988E-02   6.04054716E-04
   8.79900008E-02   5.46004099E-04
   8.82000029E-02   4.85382858E-04
   8.84099975E-02   4.22578392E-04
   8.86199996E-02   3.57992074E-04
   8.88300017E-02   2.92035926E-04
   8.90400037E-02   2.25129377E-04
   8.92499983E-02   1.57695729E-04
   8.94600004E-02   9.01587991E-05
   8.96700025E-02   2.29393772E-05
   8.98799971E-02  -4.35482652E-05
   9.00899991E-02  -1.08899745E-04
   9.03000012E-02  -1.72723943E-04
   9.05100033E-02  -2.34646242E-04
   9.07199979E-02  -2.94311671E-04
   9.09299999E-02  -3.51387687E-04
   9.11400020E-02  -4.05567058E-04
   9.13499966E-02  -4.56570269E-04
   9.15599987E-02  -5.04147843E-04
   9.17700008E-02  -5.48082055E-04
   9.19800028E-02  -5.88189170E-04
   9.21899974E-02  -6.24320179E-04
   9.23999995E-02  -6.56362332E-04
   9.26100016E-02  -6.84239494E-04
   9.28200036E-02  -7.07912783E-04
   9.30299982E-02  -7.27380568E-04
   9.32400003E-02  -7.42677774E-04
   9.34500024E-02  -7.53875938E-04
   9.36599970E-02  -7.61081348E-04
   9.38699991E-02  -7.64434342E-04
   9.40800011E-02  -7.64107332E-04
   9.42900032E-02  -7.60302879E-04
   9.44999978E-02  -7.53251545E-04
   9.47099999E-02  -7.43209268E-04
   9.49200019E-02  -7.30454689E-04
   9.51299965E-02  -7.15285947E-04
   9.53399986E-02  -6.98017597E-04
   9.55500007E-02  -6.78977696E-04
   9.57600027E-02  -6.58503908E-04
   9.59699973E-02  -6.36940182E-04
   9.61799994E-02  -6.14632969E-04
   9.63900015E-02  -5.91927848E-04
   9.66000035E-02  -5.69165975E-04
   9.68099982E-02  -5.46680414E-04
   9.70200002E-02  -5.24792704E-04
   9.72300023E-02  -5.03809657E-04
   9.74399969E-02  -4.84020187E-04
   9.76499990E-02  -4.65692225E-04
   9.78600010E-02  -4.49070154E-04
   9.80700031E-02  -4.34372021E-04
   9.82799977E-02  -4.21787670E-04
   9.84899998E-02  -4.11476503E-04
   9.87000018E-02  -4.03565791E-04
   9.89099964E-02  -3.98149685E-04
   9.91199985E-02  -3.95287992E-04
   9.93300006E-02  -3.95005482E-04
   9.95400026E-02  -3.97291937E-04
   9.97499973E-02  -4.02101869E-04
   9.99599993E-02  -4.09355096E-04
  0.100170001      -4.18937503E-04
  0.100380003      -4.30702145E-04
  0.100589998      -4.44470788E-04
  0.100800000      -4.60035488E-04
  0.101010002      -4.77160735E-04
  0.101219997      -4.95585788E-04
  0.101429999      -5.15027088E-04
  0.101640001      -5.35181025E-04
  0.101850003      -5.55727223E-04
  0.102059998      -5.76331222E-04
  0.102270000      -5.96648024E-04
  0.102480002      -6.16325182E-04
  0.102689996      -6.35006349E-04
  0.102899998      -6.52334653E-04
  0.103110000      -6.67956076E-04
  0.103320003      -6.81522768E-04
  0.103529997      -6.92696369E-04
  0.103739999      -7.01151090E-04
  0.103950001      -7.06576859E-04
  0.104160003      -7.08681880E-04
  0.104369998      -7.07195664E-04
  0.104580000      -7.01871177E-04
  0.104790002      -6.92486879E-04
  0.104999997      -6.78848883E-04
  0.105209999      -6.60792517E-04
  0.105420001      -6.38183497E-04
  0.105630003      -6.10919145E-04
  0.105839998      -5.78928913E-04
  0.106050000      -5.42174908E-04
  0.106260002      -5.00652066E-04
  0.106470004      -4.54387511E-04
  0.106679998      -4.03440557E-04
  0.106890000      -3.47901689E-04
  0.107100002      -2.87891395E-04
  0.107309997      -2.23559095E-04
  0.107519999      -1.55081434E-04
  0.107730001      -8.26603718E-05
  0.107940003      -6.52155177E-06
  0.108149998       7.30879474E-05
  0.108360000       1.55901929E-04
  0.108570002       2.41637215E-04
  0.108779997       3.29996226E-04
  0.108989999       4.20669414E-04
  0.109200001       5.13337494E-04
  0.109410003       6.07674185E-04
  0.109619997       7.03348604E-04
  0.109830000       8.00027337E-04
  0.110040002       8.97376798E-04
  0.110250004       9.95065318E-04
  0.110459998       1.09276501E-03
  0.110670000       1.19015377E-03
  0.110880002       1.28691667E-03
  0.111089997       1.38274697E-03
  0.111299999       1.47734815E-03
  0.111510001       1.57043466E-03
  0.111720003       1.66173209E-03
  0.111929998       1.75097829E-03
  0.112140000       1.83792342E-03
  0.112350002       1.92233012E-03
  0.112559997       2.00397288E-03
  0.112769999       2.08263844E-03
  0.112980001       2.15812516E-03
  0.113190003       2.23024236E-03
  0.113399997       2.29880912E-03
  0.113609999       2.36365362E-03
  0.113820001       2.42461194E-03
  0.114030004       2.48152786E-03
  0.114239998       2.53424980E-03
  0.114450000       2.58263201E-03
  0.114660002       2.62653129E-03
  0.114869997       2.66580726E-03
  0.115079999       2.70032114E-03
  0.115290001       2.72993417E-03
  0.115500003       2.75450712E-03
  0.115709998       2.77389959E-03
  0.115920000       2.78796954E-03
  0.116130002       2.79657263E-03
  0.116339996       2.79956241E-03
  0.116549999       2.79679033E-03
  0.116760001       2.78810551E-03
  0.116970003       2.77335639E-03
  0.117179997       2.75239046E-03
  0.117389999       2.72505474E-03
  0.117600001       2.69119837E-03
  0.117810003       2.65067304E-03
  0.118019998       2.60333531E-03
  0.118230000       2.54904805E-03
  0.118440002       2.48768227E-03
  0.118649997       2.41911924E-03
  0.118859999       2.34325277E-03
  0.119070001       2.25999206E-03
  0.119280003       2.16926355E-03
  0.119489998       2.07101391E-03
  0.119700000       1.96521217E-03
  0.119910002       1.85185182E-03
  0.120119996       1.73095369E-03
  0.120329998       1.60256785E-03
  0.120540000       1.46677566E-03
  0.120750003       1.32369192E-03
  0.120959997       1.17346586E-03
  0.121169999       1.01628364E-03
  0.121380001       8.52367957E-04
  0.121590003       6.81979465E-04
  0.121799998       5.05417469E-04
  0.122010000       3.23019718E-04
  0.122220002       1.35162074E-04
  0.122429997      -5.77428546E-05
  0.122639999      -2.55246297E-04
  0.122850001      -4.56865411E-04
  0.123060003      -6.62084902E-04
  0.123269998      -8.70359421E-04
  0.123480000      -1.08111766E-03
  0.123690002      -1.29376375E-03
  0.123899996      -1.50768214E-03
  0.124109998      -1.72224198E-03
  0.124320000      -1.93680031E-03
  0.124530002      -2.15070625E-03
  0.124739997      -2.36330670E-03
  0.124949999      -2.57395091E-03
  0.125159994      -2.78199511E-03
  0.125369996      -2.98680714E-03
  0.125579998      -3.18777235E-03
  0.125790000      -3.38429795E-03
  0.126000002      -3.57581698E-03
  0.126210004      -3.76179302E-03
  0.126420006      -3.94172501E-03
  0.126629993      -4.11515031E-03
  0.126839995      -4.28164797E-03
  0.127049997      -4.44084033E-03
  0.127260000      -4.59239678E-03
  0.127470002      -4.73603467E-03
  0.127680004      -4.87151928E-03
  0.127890006      -4.99866391E-03
  0.128099993      -5.11732977E-03
  0.128309995      -5.22742514E-03
  0.128519997      -5.32889925E-03
  0.128729999      -5.42173907E-03
  0.128940001      -5.50596882E-03
  0.129150003      -5.58164110E-03
  0.129360005      -5.64882858E-03
  0.129570007      -5.70762111E-03
  0.129779994      -5.75811416E-03
  0.129989997      -5.80040039E-03
  0.130199999      -5.83455525E-03
  0.130410001      -5.86063415E-03
  0.130620003      -5.87865291E-03
  0.130830005      -5.88857802E-03
  0.131040007      -5.89031260E-03
  0.131249994      -5.88368205E-03
  0.131459996      -5.86842140E-03
  0.131669998      -5.84415719E-03
  0.131880000      -5.81039535E-03
  0.132090002      -5.76650584E-03
  0.132300004      -5.71170310E-03
  0.132510006      -5.64503483E-03
  0.132719994      -5.56536624E-03
  0.132929996      -5.47136180E-03
  0.133139998      -5.36147458E-03
  0.133350000      -5.23393182E-03
  0.133560002      -5.08672185E-03
  0.133770004      -4.91758063E-03
  0.133980006      -4.72397963E-03
  0.134189993      -4.50311834E-03
  0.134399995      -4.25191456E-03
  0.134609997      -3.96699691E-03
  0.134819999      -3.64469527E-03
  0.135030001      -3.28104012E-03
  0.135240003      -2.87175970E-03
  0.135450006      -2.41227448E-03
  0.135659993      -1.89770397E-03
  0.135869995      -1.32286723E-03
  0.136079997      -6.82286394E-04
  0.136289999       2.98119758E-05
  0.136500001       8.19485576E-04
  0.136710003       1.69305794E-03
  0.136920005       2.65711779E-03
  0.137130007       3.71850096E-03
  0.137339994       4.88427328E-03
  0.137549996       6.16171816E-03
  0.137759998       7.55830714E-03
  0.137970001       9.08168685E-03
  0.138180003       1.07396524E-02
  0.138390005       1.25401262E-02
  0.138600007       1.44911325E-02
  0.138809994       1.66007672E-02
  0.139019996       1.88771635E-02
  0.139229998       2.13284791E-02
  0.139440000       2.39628572E-02
  0.139650002       2.67883930E-02
  0.139860004       2.98130997E-02
  0.140070006       3.30448933E-02
  0.140279993       3.64915431E-02
  0.140489995       4.01606597E-02
  0.140699998       4.40596342E-02
  0.140910000       4.81956340E-02
  0.141120002       5.25755621E-02
  0.141330004       5.72060235E-02
  0.141540006       6.20933026E-02
  0.141749993       6.72433302E-02
  0.141959995       7.26616681E-02
  0.142169997       7.83534721E-02
  0.142379999       8.43234658E-02
  0.142590001       9.05759186E-02
  0.142800003       9.71146524E-02
  0.143010005      0.103942998    
  0.143220007      0.111063763    
  0.143429995      0.118479259    
  0.143639997      0.126191229    
  0.143849999      0.134200931    
  0.144060001      0.142509028    
  0.144270003      0.151115671    
  0.144480005      0.160020456    
  0.144690007      0.169222370    
  0.144899994      0.178719893    
  0.145109996      0.188510939    
  0.145319998      0.198592886    
  0.145530000      0.208962590    
  0.145740002      0.219616339    
  0.145950004      0.230549946    
  0.146160007      0.241758734    
  0.146369994      0.253237516    
  0.146579996      0.264980644    
  0.146789998      0.276982099    
  0.147000000      0.289235413    
  0.147210002      0.301733643    
  0.147420004      0.314469606    
  0.147630006      0.327435702    
  0.147839993      0.340624005    
  0.148049995      0.354026347    
  0.148259997      0.367634267    
  0.148469999      0.381439120    
  0.148680001      0.395432025    
  0.148890004      0.409603894    
  0.149100006      0.423945606    
  0.149309993      0.438447863    
  0.149519995      0.453101248    
  0.149729997      0.467896372    
  0.149939999      0.482823730    
  0.150150001      0.497873992    
  0.150360003      0.513037682    
  0.150570005      0.528305471    
  0.150780007      0.543668091    
  0.150989994      0.559116364    
  0.151199996      0.574641287    
  0.151409999      0.590234041    
  0.151620001      0.605885863    
  0.151830003      0.621588230    
  0.152040005      0.637332916    
  0.152250007      0.653111815    
  0.152459994      0.668917060    
  0.152669996      0.684741199    
  0.152879998      0.700576782    
  0.153090000      0.716416776    
  0.153300002      0.732254386    
  0.153510004      0.748083174    
  0.153720006      0.763897002    
  0.153929994      0.779689968    
  0.154139996      0.795456409    
  0.154349998      0.811191082    
  0.154560000      0.826888919    
  0.154770002      0.842545211    
  0.154980004      0.858155429    
  0.155190006      0.873715580    
  0.155399993      0.889221668    
  0.155609995      0.904670179    
  0.155819997      0.920057595    
  0.156029999      0.935380816    
  0.156240001      0.950637102    
  0.156450003      0.965823829    
  0.156660005      0.980938435    
  0.156869993      0.995978713    
  0.157079995       1.01094258    
  0.157289997       1.02582824    
  0.157499999       1.04063416    
  0.157710001       1.05535865    
  0.157920003       1.07000041    
  0.158130005       1.08455825    
  0.158340007       1.09903073    
  0.158549994       1.11341715    
  0.158759996       1.12771654    
  0.158969998       1.14192808    
  0.159180000       1.15605104    
  0.159390002       1.17008460    
  0.159600005       1.18402839    
  0.159810007       1.19788170    
  0.160019994       1.21164382    
  0.160229996       1.22531450    
  0.160439998       1.23889315    
  0.160650000       1.25237954    
  0.160860002       1.26577306    
  0.161070004       1.27907324    
  0.161280006       1.29227984    
  0.161489993       1.30539250    
  0.161699995       1.31841087    
  0.161909997       1.33133459    
  0.162120000       1.34416330    
  0.162330002       1.35689664    
  0.162540004       1.36953449    
  0.162750006       1.38207662    
  0.162959993       1.39452267    
  0.163169995       1.40687263    
  0.163379997       1.41912627    
  0.163589999       1.43128359    
  0.163800001       1.44334471    
  0.164010003       1.45530939    
  0.164220005       1.46717787    
  0.164430007       1.47895050    
  0.164639995       1.49062741    
  0.164849997       1.50220919    
  0.165059999       1.51369631    
  0.165270001       1.52508962    
  0.165480003       1.53638971    
  0.165690005       1.54759765    
  0.165900007       1.55871427    
  0.166109994       1.56974125    
  0.166319996       1.58067966    
  0.166529998       1.59153128    
  0.166740000       1.60229790    
  0.166950002       1.61298156    
  0.167160004       1.62358427    
  0.167370006       1.63410866    
  0.167579994       1.64455724    
  0.167789996       1.65493286    
  0.167999998       1.66523862    
  0.168210000       1.67547762    
  0.168420002       1.68565345    
  0.168630004       1.69576967    
  0.168840006       1.70583034    
  0.169049993       1.71583951    
  0.169259995       1.72580159    
  0.169469997       1.73572087    
  0.169679999       1.74560237    
  0.169890001       1.75545084    
  0.170100003       1.76527131    
  0.170310006       1.77506912    
  0.170519993       1.78484941    
  0.170729995       1.79461789    
  0.170939997       1.80438006    
  0.171149999       1.81414175    
  0.171360001       1.82390857    
  0.171570003       1.83368659    
  0.171780005       1.84348178    
  0.171990007       1.85329998    
  0.172199994       1.86314726    
  0.172409996       1.87302947    
  0.172619998       1.88295245    
  0.172830001       1.89292204    
  0.173040003       1.90294409    
  0.173250005       1.91302419    
  0.173460007       1.92316794    
  0.173669994       1.93338060    
  0.173879996       1.94366717    
  0.174089998       1.95403278    
  0.174300000       1.96448219    
  0.174510002       1.97501981    
  0.174720004       1.98564959    
  0.174930006       1.99637544    
  0.175139993       2.00720096    
  0.175349995       2.01812935    
  0.175559998       2.02916336    
  0.175770000       2.04030561    
  0.175980002       2.05155826    
  0.176190004       2.06292295    
  0.176400006       2.07440066    
  0.176609993       2.08599210    
  0.176819995       2.09769797    
  0.177029997       2.10951757    
  0.177239999       2.12145066    
  0.177450001       2.13349605    
  0.177660003       2.14565182    
  0.177870005       2.15791655    
  0.178080007       2.17028689    
  0.178289995       2.18276024    
  0.178499997       2.19533300    
  0.178709999       2.20800138    
  0.178920001       2.22076058    
  0.179130003       2.23360562    
  0.179340005       2.24653149    
  0.179550007       2.25953221    
  0.179759994       2.27260137    