   0.00000000       0.00000000    
   2.09999998E-04   0.00000000    
   4.19999997E-04   0.00000000    
   6.30000024E-04   0.00000000    
   8.39999993E-04  -3.19721915E-20
   1.04999996E-03  -3.42983927E-19
   1.26000005E-03  -1.98250936E-18
   1.47000002E-03  -8.22766115E-18
   1.67999999E-03  -2.75060748E-17
   1.88999996E-03  -7.87422077E-17
   2.09999993E-03  -2.00353004E-16
   2.30999989E-03  -4.64436900E-16
   2.52000010E-03  -9.98031499E-16
   2.73000007E-03  -2.01361246E-15
   2.94000003E-03  -3.85129915E-15
   3.15000000E-03  -7.03546244E-15
   3.35999997E-03  -1.23485765E-14
   3.56999994E-03  -2.09251104E-14
   3.77999991E-03  -3.43682602E-14
   3.99000011E-03  -5.48918990E-14
   4.19999985E-03  -8.54895243E-14
   4.41000005E-03  -1.30131569E-13
   4.61999979E-03  -1.93991240E-13
   4.82999999E-03  -2.83697301E-13
   5.04000019E-03  -4.07612068E-13
   5.24999993E-03  -5.76129422E-13
   5.46000013E-03  -8.01986461E-13
   5.66999987E-03  -1.10057981E-12
   5.88000007E-03  -1.49027633E-12
   6.08999981E-03  -1.99270375E-12
   6.30000001E-03  -2.63300297E-12
   6.51000021E-03  -3.44002474E-12
   6.71999995E-03  -4.44644885E-12
   6.93000015E-03  -5.68880446E-12
   7.13999989E-03  -7.20735277E-12
   7.35000009E-03  -9.04582832E-12
   7.55999982E-03  -1.12509889E-11
   7.77000003E-03  -1.38719479E-11
   7.98000023E-03  -1.69592881E-11
   8.19000043E-03  -2.05638874E-11
   8.39999970E-03  -2.47354793E-11
   8.60999990E-03  -2.95208996E-11
   8.82000010E-03  -3.49620229E-11
   9.03000031E-03  -4.10933891E-11
   9.23999958E-03  -4.79395169E-11
   9.44999978E-03  -5.55118902E-11
   9.65999998E-03  -6.38057246E-11
   9.87000018E-03  -7.27964772E-11
   1.00800004E-02  -8.24362315E-11
   1.02899997E-02  -9.26498600E-11
   1.04999999E-02  -1.03331267E-10
   1.07100001E-02  -1.14339774E-10
   1.09200003E-02  -1.25496558E-10
   1.11300005E-02  -1.36581496E-10
   1.13399997E-02  -1.47330592E-10
   1.15499999E-02  -1.57433858E-10
   1.17600001E-02  -1.66534231E-10
   1.19700003E-02  -1.74227271E-10
   1.21799996E-02  -1.80062187E-10
   1.23899998E-02  -1.83544263E-10
   1.26000000E-02  -1.84138788E-10
   1.28100002E-02  -1.81276716E-10
   1.30200004E-02  -1.74362233E-10
   1.32299997E-02  -1.62782357E-10
   1.34399999E-02  -1.45918583E-10
   1.36500001E-02  -1.23160857E-10
   1.38600003E-02  -9.39240283E-11
   1.40699996E-02  -5.76662364E-11
   1.42799998E-02  -1.39096391E-11
   1.44900000E-02   3.77368935E-11
   1.47000002E-02   9.75527020E-11
   1.49100004E-02   1.65679262E-10
   1.51199996E-02   2.42092568E-10
   1.53299998E-02   3.26574295E-10
   1.55400001E-02   4.18682533E-10
   1.57500003E-02   5.17723475E-10
   1.59600005E-02   6.22723040E-10
   1.61700007E-02   7.32399696E-10
   1.63800009E-02   8.45140513E-10
   1.65899992E-02   9.58979895E-10
   1.67999994E-02   1.07158182E-09
   1.70099996E-02   1.18022814E-09
   1.72199998E-02   1.28181243E-09
   1.74300000E-02   1.37283940E-09
   1.76400002E-02   1.44943457E-09
   1.78500004E-02   1.50736057E-09
   1.80600006E-02   1.54204505E-09
   1.82700008E-02   1.54861735E-09
   1.84799992E-02   1.52195767E-09
   1.86899994E-02   1.45675860E-09
   1.88999996E-02   1.34759781E-09
   1.91099998E-02   1.18902177E-09
   1.93200000E-02   9.75646897E-10
   1.95300002E-02   7.02270242E-10
   1.97400004E-02   3.63992142E-10
   1.99500006E-02  -4.36494382E-11
   2.01600008E-02  -5.24534804E-10
   2.03699991E-02  -1.08180553E-09
   2.05799993E-02  -1.71770376E-09
   2.07899995E-02  -2.43340370E-09
   2.09999997E-02  -3.22884097E-09
   2.12099999E-02  -4.10253875E-09
   2.14200001E-02  -5.05143882E-09
   2.16300003E-02  -6.07073325E-09
   2.18400005E-02  -7.15371007E-09
   2.20500007E-02  -8.29160740E-09
   2.22600009E-02  -9.47348422E-09
   2.24699993E-02  -1.06861107E-08
   2.26799995E-02  -1.19138841E-08
   2.28899997E-02  -1.31387727E-08
   2.30999999E-02  -1.43402934E-08
   2.33100001E-02  -1.54955249E-08
   2.35200003E-02  -1.65791558E-08
   2.37300005E-02  -1.75635932E-08
   2.39400007E-02  -1.84191027E-08
   2.41500009E-02  -1.91140046E-08
   2.43599992E-02  -1.96149319E-08
   2.45699994E-02  -1.98871266E-08
   2.47799996E-02  -1.98948111E-08
   2.49899998E-02  -1.96016003E-08
   2.52000000E-02  -1.89709901E-08
   2.54100002E-02  -1.79668671E-08
   2.56200004E-02  -1.65541234E-08
   2.58300006E-02  -1.46992694E-08
   2.60400008E-02  -1.23711237E-08
   2.62499992E-02  -9.54152490E-09
   2.64599994E-02  -6.18610141E-09
   2.66699996E-02  -2.28505592E-09
   2.68799998E-02   2.17606200E-09
   2.70900000E-02   7.20553439E-09
   2.73000002E-02   1.28046693E-08
   2.75100004E-02   1.89670111E-08
   2.77200006E-02   2.56775881E-08
   2.79300008E-02   3.29122045E-08
   2.81399991E-02   4.06367668E-08
   2.83499993E-02   4.88066831E-08
   2.85599995E-02   5.73663783E-08
   2.87699997E-02   6.62488731E-08
   2.89799999E-02   7.53754961E-08
   2.91900001E-02   8.46557171E-08
   2.94000003E-02   9.39871541E-08
   2.96100006E-02   1.03255680E-07
   2.98200008E-02   1.12335741E-07
   3.00299991E-02   1.21090864E-07
   3.02399993E-02   1.29374286E-07
   3.04499995E-02   1.37029900E-07
   3.06599997E-02   1.43893274E-07
   3.08699999E-02   1.49792996E-07
   3.10800001E-02   1.54552126E-07
   3.12899984E-02   1.57989845E-07
   3.15000005E-02   1.59923488E-07
   3.17099988E-02   1.60170558E-07
   3.19200009E-02   1.58550975E-07
   3.21299993E-02   1.54889605E-07
   3.23400013E-02   1.49018817E-07
   3.25499997E-02   1.40781211E-07
   3.27600017E-02   1.30032475E-07
   3.29700001E-02   1.16644308E-07
   3.31799984E-02   1.00507350E-07
   3.33900005E-02   8.15342744E-08
   3.35999988E-02   5.96627032E-08
   3.38100009E-02   3.48581004E-08
   3.40199992E-02   7.11663795E-09
   3.42300013E-02  -2.35320687E-08
   3.44399996E-02  -5.70225005E-08
   3.46500017E-02  -9.32509749E-08
   3.48600000E-02  -1.32073566E-07
   3.50699984E-02  -1.73304358E-07
   3.52800004E-02  -2.16714142E-07
   3.54899988E-02  -2.62029403E-07
   3.57000008E-02  -3.08931789E-07
   3.59099992E-02  -3.57058042E-07
   3.61200012E-02  -4.06000566E-07
   3.63299996E-02  -4.55308140E-07
   3.65400016E-02  -5.04487730E-07
   3.67500000E-02  -5.53006430E-07
   3.69599983E-02  -6.00294300E-07
   3.71700004E-02  -6.45747775E-07
   3.73799987E-02  -6.88733280E-07
   3.75900008E-02  -7.28592113E-07
   3.77999991E-02  -7.64645506E-07
   3.80100012E-02  -7.96200425E-07
   3.82199995E-02  -8.22555648E-07
   3.84300016E-02  -8.43008820E-07
   3.86399999E-02  -8.56863721E-07
   3.88499983E-02  -8.63437833E-07
   3.90600003E-02  -8.62070578E-07
   3.92699987E-02  -8.52131620E-07
   3.94800007E-02  -8.33029844E-07
   3.96899991E-02  -8.04221429E-07
   3.99000011E-02  -7.65219568E-07
   4.01099995E-02  -7.15602823E-07
   4.03200015E-02  -6.55023882E-07
   4.05299999E-02  -5.83218366E-07
   4.07399982E-02  -5.00012845E-07
   4.09500003E-02  -4.05332685E-07
   4.11599986E-02  -2.99209489E-07
   4.13700007E-02  -1.81787485E-07
   4.15799990E-02  -5.33295825E-08
   4.17900011E-02   8.57775717E-08
   4.19999994E-02   2.35019215E-07
   4.22100015E-02   3.93749417E-07
   4.24199998E-02   5.61188756E-07
   4.26299982E-02   7.36424056E-07
   4.28400002E-02   9.18408546E-07
   4.30499986E-02   1.10596352E-06
   4.32600006E-02   1.29778084E-06
   4.34699990E-02   1.49242862E-06
   4.36800011E-02   1.68835584E-06
   4.38899994E-02   1.88390072E-06
   4.41000015E-02   2.07729886E-06
   4.43099998E-02   2.26669385E-06
   4.45200019E-02   2.45014849E-06
   4.47300002E-02   2.62565845E-06
   4.49399985E-02   2.79116603E-06
   4.51500006E-02   2.94457527E-06
   4.53599989E-02   3.08377003E-06
   4.55700010E-02   3.20662934E-06
   4.57799993E-02   3.31104820E-06
   4.59900014E-02   3.39495614E-06
   4.61999997E-02   3.45633589E-06
   4.64100018E-02   3.49324569E-06
   4.66200002E-02   3.50383903E-06
   4.68299985E-02   3.48638559E-06
   4.70400006E-02   3.43929173E-06
   4.72499989E-02   3.36112157E-06
   4.74600010E-02   3.25061683E-06
   4.76699993E-02   3.10671612E-06
   4.78800014E-02   2.92857430E-06
   4.80899997E-02   2.71557883E-06
   4.83000018E-02   2.46736863E-06
   4.85100001E-02   2.18384616E-06
   4.87199984E-02   1.86519264E-06
   4.89300005E-02   1.51187919E-06
   4.91399989E-02   1.12467694E-06
   4.93500009E-02   7.04665638E-07
   4.95599993E-02   2.53237943E-07
   4.97700013E-02  -2.27896791E-07
   4.99799997E-02  -7.36711115E-07
   5.01900017E-02  -1.27086150E-06
   5.04000001E-02  -1.82769202E-06
   5.06099984E-02  -2.40424106E-06
   5.08200005E-02  -2.99725116E-06
   5.10299988E-02  -3.60317927E-06
   5.12400009E-02  -4.21821369E-06
   5.14499992E-02  -4.83828853E-06
   5.16600013E-02  -5.45910461E-06
   5.18699996E-02  -6.07615084E-06
   5.20800017E-02  -6.68472831E-06
   5.22900000E-02  -7.27997804E-06
   5.24999984E-02  -7.85690645E-06
   5.27100004E-02  -8.41042038E-06
   5.29199988E-02  -8.93535253E-06
   5.31300008E-02  -9.42650240E-06
   5.33399992E-02  -9.87866497E-06
   5.35500012E-02  -1.02866707E-05
   5.37599996E-02  -1.06454236E-05
   5.39700016E-02  -1.09499324E-05
   5.41800000E-02  -1.11953550E-05
   5.43899983E-02  -1.13770348E-05
   5.46000004E-02  -1.14905397E-05
   5.48099987E-02  -1.15316980E-05
   5.50200008E-02  -1.14966388E-05
   5.52299991E-02  -1.13818269E-05
   5.54400012E-02  -1.11840955E-05
   5.56499995E-02  -1.09006905E-05
   5.58600016E-02  -1.05292929E-05
   5.60699999E-02  -1.00680581E-05
   5.62799983E-02  -9.51563925E-06
   5.64900003E-02  -8.87121769E-06
   5.66999987E-02  -8.13453153E-06
   5.69100007E-02  -7.30589272E-06
   5.71199991E-02  -6.38621077E-06
   5.73300011E-02  -5.37700907E-06
   5.75399995E-02  -4.28043859E-06
   5.77500015E-02  -3.09929487E-06
   5.79599999E-02  -1.83701900E-06
   5.81699982E-02  -4.97705855E-07
   5.83800003E-02   9.13892165E-07
   5.85899986E-02   2.39236965E-06
   5.88000007E-02   3.93167102E-06
   5.90099990E-02   5.52510119E-06
   5.92200011E-02   7.16533805E-06
   5.94299994E-02   8.84444671E-06
   5.96400015E-02   1.05539002E-05
   5.98499998E-02   1.22846059E-05
   6.00599982E-02   1.40269303E-05
   6.02700002E-02   1.57707309E-05
   6.04799986E-02   1.75053901E-05
   6.06900007E-02   1.92198604E-05
   6.08999990E-02   2.09027003E-05
   6.11100011E-02   2.25421263E-05
   6.13199994E-02   2.41260605E-05
   6.15300015E-02   2.56421881E-05
   6.17399998E-02   2.70780183E-05
   6.19499981E-02   2.84209382E-05
   6.21600002E-02   2.96582857E-05
   6.23699985E-02   3.07774135E-05
   6.25799969E-02   3.17657687E-05
   6.27899989E-02   3.26109657E-05
   6.30000010E-02   3.33008611E-05
   6.32100031E-02   3.38236423E-05
   6.34199977E-02   3.41679042E-05
   6.36299998E-02   3.43227439E-05
   6.38400018E-02   3.42778403E-05
   6.40499964E-02   3.40235565E-05
   6.42599985E-02   3.35510231E-05
   6.44700006E-02   3.28522292E-05
   6.46800026E-02   3.19201245E-05
   6.48899972E-02   3.07486916E-05
   6.50999993E-02   2.93330722E-05
   6.53100014E-02   2.76696210E-05
   6.55200034E-02   2.57560077E-05
   6.57299981E-02   2.35913139E-05
   6.59400001E-02   2.11760980E-05
   6.61500022E-02   1.85124882E-05
   6.63599968E-02   1.56042424E-05
   6.65699989E-02   1.24568242E-05
   6.67800009E-02   9.07744834E-06
   6.69900030E-02   5.47514492E-06
   6.71999976E-02   1.66079963E-06
   6.74099997E-02  -2.35281505E-06
   6.76200017E-02  -6.55101485E-06
   6.78299963E-02  -1.09171988E-05
   6.80399984E-02  -1.54328336E-05
   6.82500005E-02  -2.00774884E-05
   6.84600025E-02  -2.48288488E-05
   6.86699972E-02  -2.96627586E-05
   6.88799992E-02  -3.45532972E-05
   6.90900013E-02  -3.94728304E-05
   6.93000033E-02  -4.43921163E-05
   6.95099980E-02  -4.92803956E-05
   6.97200000E-02  -5.41055415E-05
   6.99300021E-02  -5.88341791E-05
   7.01399967E-02  -6.34318494E-05
   7.03499988E-02  -6.78632059E-05
   7.05600008E-02  -7.20921744E-05
   7.07700029E-02  -7.60821931E-05
   7.09799975E-02  -7.97964021E-05
   7.11899996E-02  -8.31979487E-05
   7.14000016E-02  -8.62501693E-05
   7.16100037E-02  -8.89168805E-05
   7.18199983E-02  -9.11626921E-05
   7.20300004E-02  -9.29532398E-05
   7.22400025E-02  -9.42555489E-05
   7.24499971E-02  -9.50382673E-05
   7.26599991E-02  -9.52720075E-05
   7.28700012E-02  -9.49296809E-05
   7.30800033E-02  -9.39867459E-05
   7.32899979E-02  -9.24215565E-05
   7.34999999E-02  -9.02156680E-05
   7.37100020E-02  -8.73540703E-05
   7.39199966E-02  -8.38255510E-05
   7.41299987E-02  -7.96228996E-05
   7.43400007E-02  -7.47431695E-05
   7.45500028E-02  -6.91879104E-05
   7.47599974E-02  -6.29633651E-05
   7.49699995E-02  -5.60806729E-05
   7.51800016E-02  -4.85559794E-05
   7.53900036E-02  -4.04105776E-05
   7.55999982E-02  -3.16709993E-05
   7.58100003E-02  -2.23690386E-05
   7.60200024E-02  -1.25417764E-05
   7.62299970E-02  -2.23154348E-06
   7.64399990E-02   8.51417190E-06
   7.66500011E-02   1.96428227E-05
   7.68600032E-02   3.10969699E-05
   7.70699978E-02   4.28145067E-05
   7.72799999E-02   5.47288982E-05
   7.74900019E-02   6.67695131E-05
   7.76999965E-02   7.88619145E-05
   7.79099986E-02   9.09283262E-05
   7.81200007E-02   1.02888014E-04
   7.83300027E-02   1.14657807E-04
   7.85399973E-02   1.26152590E-04
   7.87499994E-02   1.37285868E-04
   7.89600015E-02   1.47970321E-04
   7.91700035E-02   1.58118521E-04
   7.93799981E-02   1.67643477E-04
   7.95900002E-02   1.76459347E-04
   7.98000023E-02   1.84482109E-04
   8.00099969E-02   1.91630315E-04
   8.02199990E-02   1.97825691E-04
   8.04300010E-02   2.02993964E-04
   8.06400031E-02   2.07065488E-04
   8.08499977E-02   2.09975988E-04
   8.10599998E-02   2.11667153E-04
   8.12700018E-02   2.12087383E-04
   8.14799964E-02   2.11192382E-04
   8.16899985E-02   2.08945683E-04
   8.19000006E-02   2.05319273E-04
   8.21100026E-02   2.00294045E-04
   8.23199973E-02   1.93860295E-04
   8.25299993E-02   1.86018020E-04
   8.27400014E-02   1.76777306E-04
   8.29500034E-02   1.66158556E-04
   8.31599981E-02   1.54192603E-04
   8.33700001E-02   1.40920951E-04
   8.35800022E-02   1.26395607E-04
   8.37899968E-02   1.10679095E-04
   8.39999989E-02   9.38443482E-05
   8.42100009E-02   7.59743707E-05
   8.44200030E-02   5.71619203E-05
   8.46299976E-02   3.75091113E-05
   8.48399997E-02   1.71268912E-05
   8.50500017E-02  -3.86560487E-06
   8.52599964E-02  -2.53416838E-05
   8.54699984E-02  -4.71678977E-05
   8.56800005E-02  -6.92048634E-05
   8.58900025E-02  -9.13081967E-05
   8.60999972E-02  -1.13329523E-04
   8.63099992E-02  -1.35117414E-04
   8.65200013E-02  -1.56518581E-04
   8.67300034E-02  -1.77379014E-04
   8.69399980E-02  -1.97545058E-04
   8.71500000E-02  -2.16864704E-04
   8.73600021E-02  -2.35188825E-04
   8.75699967E-02  -2.52372323E-04
   8.77799988E-02  -2.68275326E-04
   8.79900008E-02  -2.82764580E-04
   8.82000029E-02  -2.95714388E-04
   8.84099975E-02  -3.07007926E-04
   8.86199996E-02  -3.16538295E-04
   8.88300017E-02  -3.24209570E-04
   8.90400037E-02  -3.29937728E-04
   8.92499983E-02  -3.33651667E-04
   8.94600004E-02  -3.35293909E-04
   8.96700025E-02  -3.34821409E-04
   8.98799971E-02  -3.32206022E-04
   9.00899991E-02  -3.27435206E-04
   9.03000012E-02  -3.20512190E-04
   9.05100033E-02  -3.11456475E-04
   9.07199979E-02  -3.00303713E-04
   9.09299999E-02  -2.87105911E-04
   9.11400020E-02  -2.71931145E-04
   9.13499966E-02  -2.54863466E-04
   9.15599987E-02  -2.36002219E-04
   9.17700008E-02  -2.15461681E-04
   9.19800028E-02  -1.93370288E-04
   9.21899974E-02  -1.69869876E-04
   9.23999995E-02  -1.45114682E-04
   9.26100016E-02  -1.19270269E-04
   9.28200036E-02  -9.25123823E-05
   9.30299982E-02  -6.50256625E-05
   9.32400003E-02  -3.70021990E-05
   9.34500024E-02  -8.64007779E-06
   9.36599970E-02   1.98581347E-05
   9.38699991E-02   4.82870710E-05
   9.40800011E-02   7.64401411E-05
   9.42900032E-02   1.04111263E-04
   9.44999978E-02   1.31096560E-04
   9.47099999E-02   1.57196177E-04
   9.49200019E-02   1.82215925E-04
   9.51299965E-02   2.05968885E-04
   9.53399986E-02   2.28277117E-04
   9.55500007E-02   2.48973316E-04
   9.57600027E-02   2.67902360E-04
   9.59699973E-02   2.84922513E-04
   9.61799994E-02   2.99906940E-04
   9.63900015E-02   3.12744931E-04
   9.66000035E-02   3.23342829E-04
   9.68099982E-02   3.31625197E-04
   9.70200002E-02   3.37535515E-04
   9.72300023E-02   3.41036706E-04
   9.74399969E-02   3.42111831E-04
   9.76499990E-02   3.40764178E-04
   9.78600010E-02   3.37017584E-04
   9.80700031E-02   3.30916169E-04
   9.82799977E-02   3.22524225E-04
   9.84899998E-02   3.11925804E-04
   9.87000018E-02   2.99223990E-04
   9.89099964E-02   2.84540118E-04
   9.91199985E-02   2.68012838E-04
   9.93300006E-02   2.49797013E-04
   9.95400026E-02   2.30062244E-04
   9.97499973E-02   2.08991696E-04
   9.99599993E-02   1.86780220E-04
  0.100170001       1.63632707E-04
  0.100380003       1.39762386E-04
  0.100589998       1.15388735E-04
  0.100800000       9.07355497E-05
  0.101010002       6.60287769E-05
  0.101219997       4.14945171E-05
  0.101429999       1.73568224E-05
  0.101640001      -6.16451734E-06
  0.101850003      -2.88559986E-05
  0.102059998      -5.05125390E-05
  0.102270000      -7.09395681E-05
  0.102480002      -8.99549341E-05
  0.102689996      -1.07390770E-04
  0.102899998      -1.23095291E-04
  0.103110000      -1.36934410E-04
  0.103320003      -1.48793159E-04
  0.103529997      -1.58576950E-04
  0.103739999      -1.66212863E-04
  0.103950001      -1.71650463E-04
  0.104160003      -1.74862536E-04
  0.104369998      -1.75845606E-04
  0.104580000      -1.74620203E-04
  0.104790002      -1.71230931E-04
  0.104999997      -1.65746242E-04
  0.105209999      -1.58258117E-04
  0.105420001      -1.48881358E-04
  0.105630003      -1.37752722E-04
  0.105839998      -1.25029852E-04
  0.106050000      -1.10889858E-04
  0.106260002      -9.55278010E-05
  0.106470004      -7.91550410E-05
  0.106679998      -6.19972852E-05
  0.106890000      -4.42924647E-05
  0.107100002      -2.62884842E-05
  0.107309997      -8.24084691E-06
  0.107519999       9.58981582E-06
  0.107730001       2.69402735E-05
  0.107940003       4.35475231E-05
  0.108149998       5.91513744E-05
  0.108360000       7.34971400E-05
  0.108570002       8.63384485E-05
  0.108779997       9.74398863E-05
  0.108989999       1.06579653E-04
  0.109200001       1.13552225E-04
  0.109410003       1.18170654E-04
  0.109619997       1.20268945E-04
  0.109830000       1.19704324E-04
  0.110040002       1.16359224E-04
  0.110250004       1.10143068E-04
  0.110459998       1.00993777E-04
  0.110670000       8.88793365E-05
  0.110880002       7.37988375E-05
  0.111089997       5.57833628E-05
  0.111299999       3.48965295E-05
  0.111510001       1.12348407E-05
  0.111720003      -1.50722872E-05
  0.111929998      -4.38628485E-05
  0.112140000      -7.49427927E-05
  0.112350002      -1.08086904E-04
  0.112559997      -1.43039899E-04
  0.112769999      -1.79517912E-04
  0.112980001      -2.17210327E-04
  0.113190003      -2.55781575E-04
  0.113399997      -2.94873666E-04
  0.113609999      -3.34108423E-04
  0.113820001      -3.73090355E-04
  0.114030004      -4.11409594E-04
  0.114239998      -4.48644918E-04
  0.114450000      -4.84367250E-04
  0.114660002      -5.18142828E-04
  0.114869997      -5.49536839E-04
  0.115079999      -5.78116917E-04
  0.115290001      -6.03457156E-04
  0.115500003      -6.25141547E-04
  0.115709998      -6.42767583E-04
  0.115920000      -6.55950338E-04
  0.116130002      -6.64325722E-04
  0.116339996      -6.67554210E-04
  0.116549999      -6.65324158E-04
  0.116760001      -6.57355238E-04
  0.116970003      -6.43401232E-04
  0.117179997      -6.23253407E-04
  0.117389999      -5.96742961E-04
  0.117600001      -5.63743582E-04
  0.117810003      -5.24173549E-04
  0.118019998      -4.77998110E-04
  0.118230000      -4.25230479E-04
  0.118440002      -3.65933724E-04
  0.118649997      -3.00221698E-04
  0.118859999      -2.28259509E-04
  0.119070001      -1.50264197E-04
  0.119280003      -6.65049156E-05
  0.119489998       2.26979810E-05
  0.119700000       1.16972886E-04
  0.119910002       2.15898035E-04
  0.120119996       3.19003157E-04
  0.120329998       4.25770617E-04
  0.120540000       5.35637548E-04
  0.120750003       6.47998124E-04
  0.120959997       7.62205862E-04
  0.121169999       8.77576647E-04
  0.121380001       9.93391499E-04
  0.121590003       1.10889971E-03
  0.121799998       1.22332294E-03
  0.122010000       1.33585802E-03
  0.122220002       1.44568167E-03
  0.122429997       1.55195373E-03
  0.122639999       1.65382167E-03
  0.122850001       1.75042450E-03
  0.123060003       1.84089737E-03
  0.123269998       1.92437577E-03
  0.123480000       1.99999986E-03
  0.123690002       2.06691888E-03
  0.123899996       2.12429580E-03
  0.124109998       2.17131060E-03
  0.124320000       2.20716605E-03
  0.124530002       2.23109056E-03
  0.124739997       2.24234327E-03
  0.124949999       2.24021706E-03
  0.125159994       2.22404371E-03
  0.125369996       2.19319575E-03
  0.125579998       2.14709202E-03
  0.125790000       2.08519958E-03
  0.126000002       2.00703694E-03
  0.126210004       1.91217836E-03
  0.126420006       1.80025492E-03
  0.126629993       1.67095859E-03
  0.126839995       1.52404385E-03
  0.127049997       1.35932933E-03
  0.127260000       1.17670069E-03
  0.127470002       9.76111682E-04
  0.127680004       7.57585920E-04
  0.127890006       5.21218288E-04
  0.128099993       2.67175987E-04
  0.128309995      -4.30134742E-06
  0.128519997      -2.92900426E-04
  0.128729999      -5.98233775E-04
  0.128940001      -9.19840066E-04
  0.129150003      -1.25718408E-03
  0.129360005      -1.60965719E-03
  0.129570007      -1.97657663E-03
  0.129779994      -2.35718815E-03
  0.129989997      -2.75066495E-03
  0.130199999      -3.15610995E-03
  0.130410001      -3.57255642E-03
  0.130620003      -3.99896968E-03
  0.130830005      -4.43424843E-03
  0.131040007      -4.87722736E-03
  0.131249994      -5.32667758E-03
  0.131459996      -5.78131108E-03
  0.131669998      -6.23978116E-03
  0.131880000      -6.70068618E-03
  0.132090002      -7.16257142E-03
  0.132300004      -7.62393139E-03
  0.132510006      -8.08321498E-03
  0.132719994      -8.53882730E-03
  0.132929996      -8.98913387E-03
  0.133139998      -9.43246298E-03
  0.133350000      -9.86711122E-03
  0.133560002      -1.02913463E-02
  0.133770004      -1.07034110E-02
  0.133980006      -1.11015299E-02
  0.134189993      -1.14839105E-02
  0.134399995      -1.18487515E-02
  0.134609997      -1.21942433E-02
  0.134819999      -1.25185773E-02
  0.135030001      -1.28199495E-02
  0.135240003      -1.30965672E-02
  0.135450006      -1.33466516E-02
  0.135659993      -1.35684460E-02
  0.135869995      -1.37602193E-02
  0.136079997      -1.39202746E-02
  0.136289999      -1.40469568E-02
  0.136500001      -1.41386529E-02
  0.136710003      -1.41938021E-02
  0.136920005      -1.42109022E-02
  0.137130007      -1.41885150E-02
  0.137339994      -1.41252717E-02
  0.137549996      -1.40198814E-02
  0.137759998      -1.38711380E-02
  0.137970001      -1.36779230E-02
  0.138180003      -1.34392139E-02
  0.138390005      -1.31540876E-02
  0.138600007      -1.28217312E-02
  0.138809994      -1.24414442E-02
  0.139019996      -1.20126447E-02
  0.139229998      -1.15348762E-02
  0.139440000      -1.10078100E-02
  0.139650002      -1.04312524E-02
  0.139860004      -9.80514660E-03
  0.140070006      -9.12958197E-03
  0.140279993      -8.40479042E-03
  0.140489995      -7.63115706E-03
  0.140699998      -6.80921972E-03
  0.140910000      -5.93967084E-03
  0.141120002      -5.02336212E-03
  0.141330004      -4.06130543E-03
  0.141540006      -3.05467239E-03
  0.141749993      -2.00479710E-03
  0.141959995      -9.13175812E-04
  0.142169997       2.18533765E-04
  0.142379999       1.38851174E-03
  0.142590001       2.59477831E-03
  0.142800003       3.83519568E-03
  0.143010005       5.10746986E-03
  0.143220007       6.40915427E-03
  0.143429995       7.73765054E-03
  0.143639997       9.09021869E-03
  0.143849999       1.04639716E-02
  0.144060001       1.18558863E-02
  0.144270003       1.32628102E-02
  0.144480005       1.46814603E-02
  0.144690007       1.61084346E-02
  0.144899994       1.75402146E-02
  0.145109996       1.89731773E-02
  0.145319998       2.04035975E-02
  0.145530000       2.18276549E-02
  0.145740002       2.32414417E-02
  0.145950004       2.46409737E-02
  0.146160007       2.60221940E-02
  0.146369994       2.73809843E-02
  0.146579996       2.87131667E-02
  0.146789998       3.00145186E-02
  0.147000000       3.12807746E-02
  0.147210002       3.25076431E-02
  0.147420004       3.36908102E-02
  0.147630006       3.48259397E-02
  0.147839993       3.59086841E-02
  0.148049995       3.69346999E-02
  0.148259997       3.78996618E-02
  0.148469999       3.87992375E-02
  0.148680001       3.96291353E-02
  0.148890004       4.03850712E-02
  0.149100006       4.10628133E-02
  0.149309993       4.16581519E-02
  0.149519995       4.21669334E-02
  0.149729997       4.25850525E-02
  0.149939999       4.29084525E-02
  0.150150001       4.31331508E-02
  0.150360003       4.32552211E-02
  0.150570005       4.32707965E-02
  0.150780007       4.31760959E-02
  0.150989994       4.29674089E-02
  0.151199996       4.26410995E-02
  0.151409999       4.21936139E-02
  0.151620001       4.16214764E-02
  0.151830003       4.09213006E-02
  0.152040005       4.00897861E-02
  0.152250007       3.91237177E-02
  0.152459994       3.80199738E-02
  0.152669996       3.67755070E-02
  0.152879998       3.53873745E-02
  0.153090000       3.38527113E-02
  0.153300002       3.21687534E-02
  0.153510004       3.03328242E-02
  0.153720006       2.83423346E-02
  0.153929994       2.61947848E-02
  0.154139996       2.38877758E-02
  0.154349998       2.14189906E-02
  0.154560000       1.87861994E-02
  0.154770002       1.59872733E-02
  0.154980004       1.30201727E-02
  0.155190006       9.88294650E-03
  0.155399993       6.57373294E-03
  0.155609995       3.09076440E-03
  0.155819997      -5.67633891E-04
  0.156029999      -4.40304214E-03
  0.156240001      -8.41694418E-03
  0.156450003      -1.26107289E-02
  0.156660005      -1.69856884E-02
  0.156869993      -2.15430167E-02
  0.157079995      -2.62838118E-02
  0.157289997      -3.12090646E-02
  0.157499999      -3.63196582E-02
  0.157710001      -4.16163616E-02
  0.157920003      -4.70998436E-02
  0.158130005      -5.27706556E-02
  0.158340007      -5.86292408E-02
  0.158549994      -6.46759272E-02
  0.158759996      -7.09108934E-02
  0.158969998      -7.73342252E-02
  0.159180000      -8.39458480E-02
  0.159390002      -9.07455757E-02
  0.159600005      -9.77330729E-02
  0.159810007     -0.104907870    
  0.160019994     -0.112269357    
  0.160229996     -0.119816773    
  0.160439998     -0.127549186    
  0.160650000     -0.135465547    
  0.160860002     -0.143564627    
  0.161070004     -0.151845038    
  0.161280006     -0.160305202    
  0.161489993     -0.168943435    
  0.161699995     -0.177757829    
  0.161909997     -0.186746344    
  0.162120000     -0.195906729    
  0.162330002     -0.205236584    
  0.162540004     -0.214733362    
  0.162750006     -0.224394277    
  0.162959993     -0.234216422    
  0.163169995     -0.244196698    
  0.163379997     -0.254331827    
  0.163589999     -0.264618337    
  0.163800001     -0.275052667    
  0.164010003     -0.285631031    
  0.164220005     -0.296349496    
  0.164430007     -0.307203889    
  0.164639995     -0.318190008    
  0.164849997     -0.329303443    
  0.165059999     -0.340539634    
  0.165270001     -0.351893932    
  0.165480003     -0.363361448    
  0.165690005     -0.374937296    
  0.165900007     -0.386616409    
  0.166109994     -0.398393631    
  0.166319996     -0.410263658    
  0.166529998     -0.422221154    
  0.166740000     -0.434260696    
  0.166950002     -0.446376771    
  0.167160004     -0.458563834    
  0.167370006     -0.470816284    
  0.167579994     -0.483128399    
  0.167789996     -0.495494604    
  0.167999998     -0.507909179    
  0.168210000     -0.520366430    
  0.168420002     -0.532860696    
  0.168630004     -0.545386374    
  0.168840006     -0.557937801    
  0.169049993     -0.570509374    
  0.169259995     -0.583095670    
  0.169469997     -0.595691204    
  0.169679999     -0.608290613    
  0.169890001     -0.620888710    
  0.170100003     -0.633480251    
  0.170310006     -0.646060348    
  0.170519993     -0.658623993    
  0.170729995     -0.671166420    
  0.170939997     -0.683683097    
  0.171149999     -0.696169555    
  0.171360001     -0.708621442    
  0.171570003     -0.721034646    
  0.171780005     -0.733405232    
  0.171990007     -0.745729566    
  0.172199994     -0.758004069    
  0.172409996     -0.770225286    
  0.172619998     -0.782390177    
  0.172830001     -0.794495881    
  0.173040003     -0.806539536    
  0.173250005     -0.818518698    
  0.173460007     -0.830431163    
  0.173669994     -0.842274785    
  0.173879996     -0.854047716    
  0.174089998     -0.865748346    
  0.174300000     -0.877375305    
  0.174510002     -0.888927341    
  0.174720004     -0.900403380    
  0.174930006     -0.911802709    
  0.175139993     -0.923124850    
  0.175349995     -0.934369266    
  0.175559998     -0.945535839    
  0.175770000     -0.956624448    
  0.175980002     -0.967635274    
  0.176190004     -0.978568733    
  0.176400006     -0.989425242    
  0.176609993      -1.00020540    
  0.176819995      -1.01091003    
  0.177029997      -1.02154005    
  0.177239999      -1.03209639    
  0.177450001      -1.04258025    
  0.177660003      -1.05299294    
  0.177870005      -1.06333554    
  0.178080007      -1.07360959    
  0.178289995      -1.08381653    
  0.178499997      -1.09395802    
  0.178709999      -1.10403550    
  0.178920001      -1.11405063    
  0.179130003      -1.12400496    
  0.179340005      -1.13390040    
  0.179550007      -1.14373839    
  0.179759994      -1.15352058    