   0.00000000       0.00000000    
   2.09999998E-04   0.00000000    
   4.19999997E-04   0.00000000    
   6.30000024E-04   0.00000000    
   8.39999993E-04  -6.74054923E-18
   1.04999996E-03  -8.49319605E-17
   1.26000005E-03  -5.55798297E-16
   1.47000002E-03  -2.54210745E-15
   1.67999999E-03  -9.18200740E-15
   1.88999996E-03  -2.79779540E-14
   2.09999993E-03  -7.49044788E-14
   2.30999989E-03  -1.81061017E-13
   2.52000010E-03  -4.02814148E-13
   2.73000007E-03  -8.36516620E-13
   2.94000003E-03  -1.63900946E-12
   3.15000000E-03  -3.05519629E-12
   3.35999997E-03  -5.45401658E-12
   3.56999994E-03  -9.37412387E-12
   3.77999991E-03  -1.55804970E-11
   3.99000011E-03  -2.51330467E-11
   4.19999985E-03  -3.94680816E-11
   4.41000005E-03  -6.04931175E-11
   4.61999979E-03  -9.06951667E-11
   4.82999999E-03  -1.33262179E-10
   5.04000019E-03  -1.92216743E-10
   5.24999993E-03  -2.72560363E-10
   5.46000013E-03  -3.80426024E-10
   5.66999987E-03  -5.23236343E-10
   5.88000007E-03  -7.09863168E-10
   6.08999981E-03  -9.50783674E-10
   6.30000001E-03  -1.25822819E-09
   6.51000021E-03  -1.64631242E-09
   6.71999995E-03  -2.13114837E-09
   6.93000015E-03  -2.73092371E-09
   7.13999989E-03  -3.46594375E-09
   7.35000009E-03  -4.35862413E-09
   7.55999982E-03  -5.43342793E-09
   7.77000003E-03  -6.71673295E-09
   7.98000023E-03  -8.23662560E-09
   8.19000043E-03  -1.00226067E-08
   8.39999970E-03  -1.21051960E-08
   8.60999990E-03  -1.45154422E-08
   8.82000010E-03  -1.72843144E-08
   9.03000031E-03  -2.04419734E-08
   9.23999958E-03  -2.40169218E-08
   9.44999978E-03  -2.80350392E-08
   9.65999998E-03  -3.25184573E-08
   9.87000018E-03  -3.74843516E-08
   1.00800004E-02  -4.29435829E-08
   1.02899997E-02  -4.88992349E-08
   1.04999999E-02  -5.53450370E-08
   1.07100001E-02  -6.22637231E-08
   1.09200003E-02  -6.96252798E-08
   1.11300005E-02  -7.73852165E-08
   1.13399997E-02  -8.54826965E-08
   1.15499999E-02  -9.38387643E-08
   1.17600001E-02  -1.02354605E-07
   1.19700003E-02  -1.10909845E-07
   1.21799996E-02  -1.19360934E-07
   1.23899998E-02  -1.27539820E-07
   1.26000000E-02  -1.35252606E-07
   1.28100002E-02  -1.42278708E-07
   1.30200004E-02  -1.48370148E-07
   1.32299997E-02  -1.53251193E-07
   1.34399999E-02  -1.56618540E-07
   1.36500001E-02  -1.58141731E-07
   1.38600003E-02  -1.57464370E-07
   1.40699996E-02  -1.54205608E-07
   1.42799998E-02  -1.47962382E-07
   1.44900000E-02  -1.38312288E-07
   1.47000002E-02  -1.24817035E-07
   1.49100004E-02  -1.07026729E-07
   1.51199996E-02  -8.44847463E-08
   1.53299998E-02  -5.67335121E-08
   1.55400001E-02  -2.33208404E-08
   1.57500003E-02   1.61928497E-08
   1.59600005E-02   6.22266469E-08
   1.61700007E-02   1.15170607E-07
   1.63800009E-02   1.75376499E-07
   1.65899992E-02   2.43148037E-07
   1.67999994E-02   3.18730457E-07
   1.70099996E-02   4.02300032E-07
   1.72199998E-02   4.93952484E-07
   1.74300000E-02   5.93692221E-07
   1.76400002E-02   7.01420674E-07
   1.78500004E-02   8.16924967E-07
   1.80600006E-02   9.39866993E-07
   1.82700008E-02   1.06977234E-06
   1.84799992E-02   1.20602056E-06
   1.86899994E-02   1.34783545E-06
   1.88999996E-02   1.49427672E-06
   1.91099998E-02   1.64423273E-06
   1.93200000E-02   1.79641438E-06
   1.95300002E-02   1.94935092E-06
   1.97400004E-02   2.10138796E-06
   1.99500006E-02   2.25068561E-06
   2.01600008E-02   2.39522137E-06
   2.03699991E-02   2.53279359E-06
   2.05799993E-02   2.66102757E-06
   2.07899995E-02   2.77738582E-06
   2.09999997E-02   2.87917965E-06
   2.12099999E-02   2.96358417E-06
   2.14200001E-02   3.02765625E-06
   2.16300003E-02   3.06835636E-06
   2.18400005E-02   3.08257268E-06
   2.20500007E-02   3.06714787E-06
   2.22600009E-02   3.01891123E-06
   2.24699993E-02   2.93470976E-06
   2.26799995E-02   2.81144662E-06
   2.28899997E-02   2.64611936E-06
   2.30999999E-02   2.43586169E-06
   2.33100001E-02   2.17798583E-06
   2.35200003E-02   1.87002945E-06
   2.37300005E-02   1.50980190E-06
   2.39400007E-02   1.09543191E-06
   2.41500009E-02   6.25417385E-07
   2.43599992E-02   9.86722668E-08
   2.45699994E-02  -4.85423641E-07
   2.47799996E-02  -1.12697739E-06
   2.49899998E-02  -1.82553845E-06
   2.52000000E-02  -2.58005321E-06
   2.54100002E-02  -3.38882569E-06
   2.56200004E-02  -4.24947893E-06
   2.58300006E-02  -5.15892361E-06
   2.60400008E-02  -6.11332689E-06
   2.62499992E-02  -7.10809218E-06
   2.64599994E-02  -8.13784118E-06
   2.66699996E-02  -9.19640388E-06
   2.68799998E-02  -1.02768136E-05
   2.70900000E-02  -1.13713158E-05
   2.73000002E-02  -1.24713770E-05
   2.75100004E-02  -1.35677110E-05
   2.77200006E-02  -1.46503053E-05
   2.79300008E-02  -1.57084633E-05
   2.81399991E-02  -1.67308572E-05
   2.83499993E-02  -1.77055808E-05
   2.85599995E-02  -1.86202287E-05
   2.87699997E-02  -1.94619624E-05
   2.89799999E-02  -2.02176107E-05
   2.91900001E-02  -2.08737601E-05
   2.94000003E-02  -2.14168667E-05
   2.96100006E-02  -2.18333607E-05
   2.98200008E-02  -2.21097798E-05
   3.00299991E-02  -2.22328908E-05
   3.02399993E-02  -2.21898281E-05
   3.04499995E-02  -2.19682297E-05
   3.06599997E-02  -2.15563869E-05
   3.08699999E-02  -2.09433838E-05
   3.10800001E-02  -2.01192506E-05
   3.12899984E-02  -1.90751070E-05
   3.15000005E-02  -1.78033151E-05
   3.17099988E-02  -1.62976157E-05
   3.19200009E-02  -1.45532749E-05
   3.21299993E-02  -1.25672068E-05
   3.23400013E-02  -1.03381162E-05
   3.25499997E-02  -7.86660166E-06
   3.27600017E-02  -5.15527108E-06
   3.29700001E-02  -2.20882862E-06
   3.31799984E-02   9.65839490E-07
   3.33900005E-02   4.35959873E-06
   3.35999988E-02   7.96102086E-06
   3.38100009E-02   1.17563468E-05
   3.40199992E-02   1.57294762E-05
   3.42300013E-02   1.98619764E-05
   3.44399996E-02   2.41331018E-05
   3.46500017E-02   2.85198494E-05
   3.48600000E-02   3.29970280E-05
   3.50699984E-02   3.75373384E-05
   3.52800004E-02   4.21115110E-05
   3.54899988E-02   4.66884085E-05
   3.57000008E-02   5.12352090E-05
   3.59099992E-02   5.57175699E-05
   3.61200012E-02   6.00998428E-05
   3.63299996E-02   6.43452731E-05
   3.65400016E-02   6.84162369E-05
   3.67500000E-02   7.22745099E-05
   3.69599983E-02   7.58815149E-05
   3.71700004E-02   7.91986167E-05
   3.73799987E-02   8.21874055E-05
   3.75900008E-02   8.48099953E-05
   3.77999991E-02   8.70293588E-05
   3.80100012E-02   8.88095892E-05
   3.82199995E-02   9.01162493E-05
   3.84300016E-02   9.09166920E-05
   3.86399999E-02   9.11803509E-05
   3.88499983E-02   9.08790316E-05
   3.90600003E-02   8.99872321E-05
   3.92699987E-02   8.84824040E-05
   3.94800007E-02   8.63452588E-05
   3.96899991E-02   8.35599494E-05
   3.99000011E-02   8.01143615E-05
   4.01099995E-02   7.60003022E-05
   4.03200015E-02   7.12136680E-05
   4.05299999E-02   6.57546407E-05
   4.07399982E-02   5.96277823E-05
   4.09500003E-02   5.28421551E-05
   4.11599986E-02   4.54113688E-05
   4.13700007E-02   3.73536495E-05
   4.15799990E-02   2.86918239E-05
   4.17900011E-02   1.94532877E-05
   4.19999994E-02   9.66995322E-06
   4.22100015E-02  -6.21856088E-07
   4.24199998E-02  -1.13815258E-05
   4.26299982E-02  -2.25643180E-05
   4.28400002E-02  -3.41215782E-05
   4.30499986E-02  -4.60009323E-05
   4.32600006E-02  -5.81465429E-05
   4.34699990E-02  -7.04994236E-05
   4.36800011E-02  -8.29977071E-05
   4.38899994E-02  -9.55769574E-05
   4.41000015E-02  -1.08170563E-04
   4.43099998E-02  -1.20710043E-04
   4.45200019E-02  -1.33125446E-04
   4.47300002E-02  -1.45345795E-04
   4.49399985E-02  -1.57299364E-04
   4.51500006E-02  -1.68914150E-04
   4.53599989E-02  -1.80118266E-04
   4.55700010E-02  -1.90840306E-04
   4.57799993E-02  -2.01009825E-04
   4.59900014E-02  -2.10557555E-04
   4.61999997E-02  -2.19415946E-04
   4.64100018E-02  -2.27519457E-04
   4.66200002E-02  -2.34804887E-04
   4.68299985E-02  -2.41211717E-04
   4.70400006E-02  -2.46682408E-04
   4.72499989E-02  -2.51162739E-04
   4.74600010E-02  -2.54601910E-04
   4.76699993E-02  -2.56953004E-04
   4.78800014E-02  -2.58173008E-04
   4.80899997E-02  -2.58223066E-04
   4.83000018E-02  -2.57068721E-04
   4.85100001E-02  -2.54679937E-04
   4.87199984E-02  -2.51031190E-04
   4.89300005E-02  -2.46101699E-04
   4.91399989E-02  -2.39875371E-04
   4.93500009E-02  -2.32340870E-04
   4.95599993E-02  -2.23491690E-04
   4.97700013E-02  -2.13326115E-04
   4.99799997E-02  -2.01847215E-04
   5.01900017E-02  -1.89062877E-04
   5.04000001E-02  -1.74985704E-04
   5.06099984E-02  -1.59633055E-04
   5.08200005E-02  -1.43026977E-04
   5.10299988E-02  -1.25194158E-04
   5.12400009E-02  -1.06165877E-04
   5.14499992E-02  -8.59780339E-05
   5.16600013E-02  -6.46710396E-05
   5.18699996E-02  -4.22898374E-05
   5.20800017E-02  -1.88838549E-05
   5.22900000E-02   5.49295783E-06
   5.24999984E-02   3.07821465E-05
   5.27100004E-02   5.69207405E-05
   5.29199988E-02   8.38412234E-05
   5.31300008E-02   1.11471483E-04
   5.33399992E-02   1.39734766E-04
   5.35500012E-02   1.68549610E-04
   5.37599996E-02   1.97829824E-04
   5.39700016E-02   2.27484357E-04
   5.41800000E-02   2.57417239E-04
   5.43899983E-02   2.87527539E-04
   5.46000004E-02   3.17709288E-04
   5.48099987E-02   3.47851426E-04
   5.50200008E-02   3.77837743E-04
   5.52299991E-02   4.07546904E-04
   5.54400012E-02   4.36852424E-04
   5.56499995E-02   4.65622667E-04
   5.58600016E-02   4.93721047E-04
   5.60699999E-02   5.21005888E-04
   5.62799983E-02   5.47330827E-04
   5.64900003E-02   5.72545105E-04
   5.66999987E-02   5.96493483E-04
   5.69100007E-02   6.19016879E-04
   5.71199991E-02   6.39952661E-04
   5.73300011E-02   6.59135170E-04
   5.75399995E-02   6.76396186E-04
   5.77500015E-02   6.91565801E-04
   5.79599999E-02   7.04472826E-04
   5.81699982E-02   7.14945782E-04
   5.83800003E-02   7.22813886E-04
   5.85899986E-02   7.27907754E-04
   5.88000007E-02   7.30060739E-04
   5.90099990E-02   7.29109917E-04
   5.92200011E-02   7.24897371E-04
   5.94299994E-02   7.17271410E-04
   5.96400015E-02   7.06088089E-04
   5.98499998E-02   6.91212539E-04
   6.00599982E-02   6.72520546E-04
   6.02700002E-02   6.49899768E-04
   6.04799986E-02   6.23251661E-04
   6.06900007E-02   5.92492928E-04
   6.08999990E-02   5.57556981E-04
   6.11100011E-02   5.18395740E-04
   6.13199994E-02   4.74981003E-04
   6.15300015E-02   4.27306019E-04
   6.17399998E-02   3.75387055E-04
   6.19499981E-02   3.19264655E-04
   6.21600002E-02   2.59005057E-04
   6.23699985E-02   1.94701395E-04
   6.25799969E-02   1.26474712E-04
   6.27899989E-02   5.44749964E-05
   6.30000010E-02  -2.11180486E-05
   6.32100031E-02  -1.00094425E-04
   6.34199977E-02  -1.82213291E-04
   6.36299998E-02  -2.67202820E-04
   6.38400018E-02  -3.54760210E-04
   6.40499964E-02  -4.44551872E-04
   6.42599985E-02  -5.36213687E-04
   6.44700006E-02  -6.29351998E-04
   6.46800026E-02  -7.23544508E-04
   6.48899972E-02  -8.18341330E-04
   6.50999993E-02  -9.13266616E-04
   6.53100014E-02  -1.00782048E-03
   6.55200034E-02  -1.10148068E-03
   6.57299981E-02  -1.19370513E-03
   6.59400001E-02  -1.28393469E-03
   6.61500022E-02  -1.37159543E-03
   6.63599968E-02  -1.45610212E-03
   6.65699989E-02  -1.53686141E-03
   6.67800009E-02  -1.61327573E-03
   6.69900030E-02  -1.68474589E-03
   6.71999976E-02  -1.75067643E-03
   6.74099997E-02  -1.81047840E-03
   6.76200017E-02  -1.86357414E-03
   6.78299963E-02  -1.90940173E-03
   6.80399984E-02  -1.94741879E-03
   6.82500005E-02  -1.97710725E-03
   6.84600025E-02  -1.99797750E-03
   6.86699972E-02  -2.00957293E-03
   6.88799992E-02  -2.01147422E-03
   6.90900013E-02  -2.00330326E-03
   6.93000033E-02  -1.98472757E-03
   6.95099980E-02  -1.95546402E-03
   6.97200000E-02  -1.91528245E-03
   6.99300021E-02  -1.86400942E-03
   7.01399967E-02  -1.80153106E-03
   7.03499988E-02  -1.72779616E-03
   7.05600008E-02  -1.64281833E-03
   7.07700029E-02  -1.54667883E-03
   7.09799975E-02  -1.43952726E-03
   7.11899996E-02  -1.32158399E-03
   7.14000016E-02  -1.19314005E-03
   7.16100037E-02  -1.05455855E-03
   7.18199983E-02  -9.06273432E-04
   7.20300004E-02  -7.48789927E-04
   7.22400025E-02  -5.82682493E-04
   7.24499971E-02  -4.08593740E-04
   7.26599991E-02  -2.27232144E-04
   7.28700012E-02  -3.93693299E-05
   7.30800033E-02   1.54163208E-04
   7.32899979E-02   3.52477509E-04
   7.34999999E-02   5.54633851E-04
   7.37100020E-02   7.59645132E-04
   7.39199966E-02   9.66481923E-04
   7.41299987E-02   1.17407821E-03
   7.43400007E-02   1.38133706E-03
   7.45500028E-02   1.58713711E-03
   7.47599974E-02   1.79033924E-03
   7.49699995E-02   1.98979327E-03
   7.51800016E-02   2.18434539E-03
   7.53900036E-02   2.37284438E-03
   7.55999982E-02   2.55415053E-03
   7.58100003E-02   2.72714230E-03
   7.60200024E-02   2.89072399E-03
   7.62299970E-02   3.04383249E-03
   7.64399990E-02   3.18544614E-03
   7.66500011E-02   3.31459101E-03
   7.68600032E-02   3.43034789E-03
   7.70699978E-02   3.53185879E-03
   7.72799999E-02   3.61833419E-03
   7.74900019E-02   3.68905882E-03
   7.76999965E-02   3.74339754E-03
   7.79099986E-02   3.78080015E-03
   7.81200007E-02   3.80080589E-03
   7.83300027E-02   3.80304852E-03
   7.85399973E-02   3.78725887E-03
   7.87499994E-02   3.75326793E-03
   7.89600015E-02   3.70100932E-03
   7.91700035E-02   3.63052054E-03
   7.93799981E-02   3.54194408E-03
   7.95900002E-02   3.43552837E-03
   7.98000023E-02   3.31162522E-03
   8.00099969E-02   3.17069003E-03
   8.02199990E-02   3.01327906E-03
   8.04300010E-02   2.84004654E-03
   8.06400031E-02   2.65174173E-03
   8.08499977E-02   2.44920375E-03
   8.10599998E-02   2.23335787E-03
   8.12700018E-02   2.00520898E-03
   8.14799964E-02   1.76583545E-03
   8.16899985E-02   1.51638337E-03
   8.19000006E-02   1.25805812E-03
   8.21100026E-02   9.92117915E-04
   8.23199973E-02   7.19864445E-04
   8.25299993E-02   4.42635268E-04
   8.27400014E-02   1.61794727E-04
   8.29500034E-02  -1.21274890E-04
   8.31599981E-02  -4.05182684E-04
   8.33700001E-02  -6.88538072E-04
   8.35800022E-02  -9.69960180E-04
   8.37899968E-02  -1.24808715E-03
   8.39999989E-02  -1.52158504E-03
   8.42100009E-02  -1.78915670E-03
   8.44200030E-02  -2.04955041E-03
   8.46299976E-02  -2.30156817E-03
   8.48399997E-02  -2.54407316E-03
   8.50500017E-02  -2.77599809E-03
   8.52599964E-02  -2.99635087E-03
   8.54699984E-02  -3.20422323E-03
   8.56800005E-02  -3.39879189E-03
   8.58900025E-02  -3.57932807E-03
   8.60999972E-02  -3.74520011E-03
   8.63099992E-02  -3.89587670E-03
   8.65200013E-02  -4.03092895E-03
   8.67300034E-02  -4.15003439E-03
   8.69399980E-02  -4.25297534E-03
   8.71500000E-02  -4.33964143E-03
   8.73600021E-02  -4.41002753E-03
   8.75699967E-02  -4.46423283E-03
   8.77799988E-02  -4.50245989E-03
   8.79900008E-02  -4.52500768E-03
   8.82000029E-02  -4.53227200E-03
   8.84099975E-02  -4.52473760E-03
   8.86199996E-02  -4.50297445E-03
   8.88300017E-02  -4.46763216E-03
   8.90400037E-02  -4.41943062E-03
   8.92499983E-02  -4.35915543E-03
   8.94600004E-02  -4.28764895E-03
   8.96700025E-02  -4.20580059E-03
   8.98799971E-02  -4.11454123E-03
   9.00899991E-02  -4.01483104E-03
   9.03000012E-02  -3.90765211E-03
   9.05100033E-02  -3.79399769E-03
   9.07199979E-02  -3.67486477E-03
   9.09299999E-02  -3.55124217E-03
   9.11400020E-02  -3.42410221E-03
   9.13499966E-02  -3.29439132E-03
   9.15599987E-02  -3.16302036E-03
   9.17700008E-02  -3.03085661E-03
   9.19800028E-02  -2.89871544E-03
   9.21899974E-02  -2.76735122E-03
   9.23999995E-02  -2.63745151E-03
   9.26100016E-02  -2.50962912E-03
   9.28200036E-02  -2.38441606E-03
   9.30299982E-02  -2.26225890E-03
   9.32400003E-02  -2.14351341E-03
   9.34500024E-02  -2.02844129E-03
   9.36599970E-02  -1.91720645E-03
   9.38699991E-02  -1.80987408E-03
   9.40800011E-02  -1.70640845E-03
   9.42900032E-02  -1.60667324E-03
   9.44999978E-02  -1.51043211E-03
   9.47099999E-02  -1.41735061E-03
   9.49200019E-02  -1.32699858E-03
   9.51299965E-02  -1.23885390E-03
   9.53399986E-02  -1.15230656E-03
   9.55500007E-02  -1.06666482E-03
   9.57600027E-02  -9.81160789E-04
   9.59699973E-02  -8.94957862E-04
   9.61799994E-02  -8.07157892E-04
   9.63900015E-02  -7.16810231E-04
   9.66000035E-02  -6.22920808E-04
   9.68099982E-02  -5.24461444E-04
   9.70200002E-02  -4.20380296E-04
   9.72300023E-02  -3.09612951E-04
   9.74399969E-02  -1.91092520E-04
   9.76499990E-02  -6.37612611E-05
   9.78600010E-02   7.34179121E-05
   9.80700031E-02   2.21450347E-04
   9.82799977E-02   3.81297898E-04
   9.84899998E-02   5.53867372E-04
   9.87000018E-02   7.39999698E-04
   9.89099964E-02   9.40459839E-04
   9.91199985E-02   1.15592498E-03
   9.93300006E-02   1.38697482E-03
   9.95400026E-02   1.63408299E-03
   9.97499973E-02   1.89760793E-03
   9.99599993E-02   2.17778329E-03
  0.100170001       2.47471267E-03
  0.100380003       2.78836256E-03
  0.100589998       3.11855599E-03
  0.100800000       3.46496864E-03
  0.101010002       3.82712460E-03
  0.101219997       4.20439476E-03
  0.101429999       4.59599542E-03
  0.101640001       5.00098616E-03
  0.101850003       5.41827222E-03
  0.102059998       5.84660657E-03
  0.102270000       6.28459034E-03
  0.102480002       6.73068175E-03
  0.102689996       7.18319695E-03
  0.102899998       7.64031755E-03
  0.103110000       8.10009893E-03
  0.103320003       8.56047869E-03
  0.103529997       9.01928451E-03
  0.103739999       9.47424490E-03
  0.103950001       9.92300175E-03
  0.104160003       1.03631187E-02
  0.104369998       1.07920980E-02
  0.104580000       1.12073915E-02
  0.104790002       1.16064120E-02
  0.104999997       1.19865518E-02
  0.105209999       1.23451930E-02
  0.105420001       1.26797268E-02
  0.105630003       1.29875625E-02
  0.105839998       1.32661480E-02
  0.106050000       1.35129811E-02
  0.106260002       1.37256244E-02
  0.106470004       1.39017208E-02
  0.106679998       1.40390089E-02
  0.106890000       1.41353337E-02
  0.107100002       1.41886612E-02
  0.107309997       1.41970916E-02
  0.107519999       1.41588692E-02
  0.107730001       1.40723959E-02
  0.107940003       1.39362421E-02
  0.108149998       1.37491534E-02
  0.108360000       1.35100596E-02
  0.108570002       1.32180844E-02
  0.108779997       1.28725516E-02
  0.108989999       1.24729881E-02
  0.109200001       1.20191313E-02
  0.109410003       1.15109291E-02
  0.109619997       1.09485472E-02
  0.109830000       1.03323655E-02
  0.110040002       9.66298115E-03
  0.110250004       8.94120708E-03
  0.110459998       8.16806592E-03
  0.110670000       7.34479260E-03
  0.110880002       6.47282740E-03
  0.111089997       5.55381225E-03
  0.111299999       4.58958466E-03
  0.111510001       3.58217047E-03
  0.111720003       2.53377832E-03
  0.111929998       1.44679111E-03
  0.112140000       3.23753164E-04
  0.112350002      -8.32632417E-04
  0.112559997      -2.01951643E-03
  0.112769999      -3.23391170E-03
  0.112980001      -4.47270600E-03
  0.113190003      -5.73266670E-03
  0.113399997      -7.01045804E-03
  0.113609999      -8.30264669E-03
  0.113820001      -9.60571133E-03
  0.114030004      -1.09160589E-02
  0.114239998      -1.22300284E-02
  0.114450000      -1.35438964E-02
  0.114660002      -1.48538947E-02
  0.114869997      -1.61562152E-02
  0.115079999      -1.74470171E-02
  0.115290001      -1.87224336E-02
  0.115500003      -1.99785810E-02
  0.115709998      -2.12115590E-02
  0.115920000      -2.24174671E-02
  0.116130002      -2.35923938E-02
  0.116339996      -2.47324351E-02
  0.116549999      -2.58336868E-02
  0.116760001      -2.68922467E-02
  0.116970003      -2.79042199E-02
  0.117179997      -2.88657323E-02
  0.117389999      -2.97729000E-02
  0.117600001      -3.06218527E-02
  0.117810003      -3.14087234E-02
  0.118019998      -3.21296453E-02
  0.118230000      -3.27807479E-02
  0.118440002      -3.33581679E-02
  0.118649997      -3.38580199E-02
  0.118859999      -3.42764147E-02
  0.119070001      -3.46094444E-02
  0.119280003      -3.48531753E-02
  0.119489998      -3.50036472E-02
  0.119700000      -3.50568667E-02
  0.119910002      -3.50088105E-02
  0.120119996      -3.48553993E-02
  0.120329998      -3.45925204E-02
  0.120540000      -3.42159942E-02
  0.120750003      -3.37215923E-02
  0.120959997      -3.31050195E-02
  0.121169999      -3.23619284E-02
  0.121380001      -3.14878933E-02
  0.121590003      -3.04784179E-02
  0.121799998      -2.93289386E-02
  0.122010000      -2.80348137E-02
  0.122220002      -2.65913401E-02
  0.122429997      -2.49937382E-02
  0.122639999      -2.32371595E-02
  0.122850001      -2.13166848E-02
  0.123060003      -1.92273334E-02
  0.123269998      -1.69640686E-02
  0.123480000      -1.45217972E-02
  0.123690002      -1.18953837E-02
  0.123899996      -9.07965284E-03
  0.124109998      -6.06940500E-03
  0.124320000      -2.85942177E-03
  0.124530002       5.55535837E-04
  0.124739997       4.18069214E-03
  0.124949999       8.02126061E-03
  0.125159994       1.20824259E-02
  0.125369996       1.63693186E-02
  0.125579998       2.08870228E-02
  0.125790000       2.56405566E-02
  0.126000002       3.06348316E-02
  0.126210004       3.58746536E-02
  0.126420006       4.13647071E-02
  0.126629993       4.71095480E-02
  0.126839995       5.31135611E-02
  0.127049997       5.93809523E-02
  0.127260000       6.59157485E-02
  0.127470002       7.27217495E-02
  0.127680004       7.98025429E-02
  0.127890006       8.71614516E-02
  0.128099993       9.48015302E-02
  0.128309995      0.102725595    
  0.128519997      0.110936113    
  0.128729999      0.119435281    
  0.128940001      0.128224954    
  0.129150003      0.137306675    
  0.129360005      0.146681577    
  0.129570007      0.156350464    
  0.129779994      0.166313782    
  0.129989997      0.176571578    
  0.130199999      0.187123492    
  0.130410001      0.197968766    
  0.130620003      0.209106281    
  0.130830005      0.220534414    
  0.131040007      0.232251212    
  0.131249994      0.244254261    
  0.131459996      0.256540745    
  0.131669998      0.269107401    
  0.131880000      0.281950563    
  0.132090002      0.295066148    
  0.132300004      0.308449745    
  0.132510006      0.322096437    
  0.132719994      0.336000860    
  0.132929996      0.350157350    
  0.133139998      0.364559919    
  0.133350000      0.379202098    
  0.133560002      0.394077063    
  0.133770004      0.409177750    
  0.133980006      0.424496621    
  0.134189993      0.440025926    
  0.134399995      0.455757588    
  0.134609997      0.471683234    
  0.134819999      0.487794191    
  0.135030001      0.504081607    
  0.135240003      0.520536304    
  0.135450006      0.537148952    
  0.135659993      0.553910136    
  0.135869995      0.570810139    
  0.136079997      0.587839067    
  0.136289999      0.604987025    
  0.136500001      0.622243941    
  0.136710003      0.639599681    
  0.136920005      0.657044053    
  0.137130007      0.674566746    
  0.137339994      0.692157626    
  0.137549996      0.709806263    
  0.137759998      0.727502644    
  0.137970001      0.745236516    
  0.138180003      0.762997746    
  0.138390005      0.780776381    
  0.138600007      0.798562407    
  0.138809994      0.816346228    
  0.139019996      0.834118247    
  0.139229998      0.851868927    
  0.139440000      0.869589150    
  0.139650002      0.887269855    
  0.139860004      0.904902220    
  0.140070006      0.922477663    
  0.140279993      0.939988077    
  0.140489995      0.957425296    
  0.140699998      0.974781632    
  0.140910000      0.992049813    
  0.141120002       1.00922263    
  0.141330004       1.02629316    
  0.141540006       1.04325521    
  0.141749993       1.06010270    
  0.141959995       1.07682967    
  0.142169997       1.09343088    
  0.142379999       1.10990119    
  0.142590001       1.12623596    
  0.142800003       1.14243114    
  0.143010005       1.15848255    
  0.143220007       1.17438674    
  0.143429995       1.19014049    
  0.143639997       1.20574093    
  0.143849999       1.22118556    
  0.144060001       1.23647249    
  0.144270003       1.25159991    
  0.144480005       1.26656640    
  0.144690007       1.28137100    
  0.144899994       1.29601276    
  0.145109996       1.31049156    
  0.145319998       1.32480693    
  0.145530000       1.33895946    
  0.145740002       1.35294950    
  0.145950004       1.36677778    
  0.146160007       1.38044548    
  0.146369994       1.39395368    
  0.146579996       1.40730393    
  0.146789998       1.42049789    
  0.147000000       1.43353772    
  0.147210002       1.44642532    
  0.147420004       1.45916295    
  0.147630006       1.47175300    
  0.147839993       1.48419797    
  0.148049995       1.49650073    
  0.148259997       1.50866377    
  0.148469999       1.52069032    
  0.148680001       1.53258300    
  0.148890004       1.54434466    
  0.149100006       1.55597854    
  0.149309993       1.56748772    
  0.149519995       1.57887518    
  0.149729997       1.59014392    
  0.149939999       1.60129714    
  0.150150001       1.61233759    
  0.150360003       1.62326837    
  0.150570005       1.63409269    
  0.150780007       1.64481330    
  0.150989994       1.65543318    
  0.151199996       1.66595507    
  0.151409999       1.67638195    
  0.151620001       1.68671632    
  0.151830003       1.69696116    
  0.152040005       1.70711887    
  0.152250007       1.71719205    
  0.152459994       1.72718334    
  0.152669996       1.73709524    
  0.152879998       1.74693012    
  0.153090000       1.75669062    
  0.153300002       1.76637888    
  0.153510004       1.77599740    
  0.153720006       1.78554857    
  0.153929994       1.79503477    
  0.154139996       1.80445826    
  0.154349998       1.81382179    
  0.154560000       1.82312739    
  0.154770002       1.83237791    
  0.154980004       1.84157574    
  0.155190006       1.85072351    
  0.155399993       1.85982382    
  0.155609995       1.86887956    
  0.155819997       1.87789357    
  0.156029999       1.88686883    
  0.156240001       1.89580846    
  0.156450003       1.90471566    
  0.156660005       1.91359377    
  0.156869993       1.92244649    
  0.157079995       1.93127716    
  0.157289997       1.94008958    
  0.157499999       1.94888759    
  0.157710001       1.95767522    
  0.157920003       1.96645689    
  0.158130005       1.97523654    
  0.158340007       1.98401880    
  0.158549994       1.99280822    
  0.158759996       2.00160980    
  0.158969998       2.01042795    
  0.159180000       2.01926756    
  0.159390002       2.02813411    
  0.159600005       2.03703237    
  0.159810007       2.04596758    
  0.160019994       2.05494499    
  0.160229996       2.06396937    
  0.160439998       2.07304621    
  0.160650000       2.08218074    
  0.160860002       2.09137797    
  0.161070004       2.10064292    
  0.161280006       2.10998058    
  0.161489993       2.11939597    
  0.161699995       2.12889361    
  0.161909997       2.13847852    
  0.162120000       2.14815497    
  0.162330002       2.15792656    
  0.162540004       2.16779780    
  0.162750006       2.17777252    
  0.162959993       2.18785381    
  0.163169995       2.19804478    
  0.163379997       2.20834804    
  0.163589999       2.21876645    
  0.163800001       2.22930169    
  0.164010003       2.23995543    
  0.164220005       2.25072885    
  0.164430007       2.26162314    
  0.164639995       2.27263832    
  0.164849997       2.28377485    
  0.165059999       2.29503131    
  0.165270001       2.30640721    
  0.165480003       2.31790090    
  0.165690005       2.32951045    
  0.165900007       2.34123302    
  0.166109994       2.35306621    
  0.166319996       2.36500621    
  0.166529998       2.37704945    
  0.166740000       2.38919139    
  0.166950002       2.40142727    
  0.167160004       2.41375184    
  0.167370006       2.42615938    
  0.167579994       2.43864417    
  0.167789996       2.45119977    
  0.167999998       2.46381927    
  0.168210000       2.47649527    
  0.168420002       2.48922062    
  0.168630004       2.50198722    
  0.168840006       2.51478767    
  0.169049993       2.52761364    
  0.169259995       2.54045677    
  0.169469997       2.55330849    
  0.169679999       2.56616020    
  0.169890001       2.57900286    
  0.170100003       2.59182811    
  0.170310006       2.60462737    
  0.170519993       2.61739135    
  0.170729995       2.63011146    
  0.170939997       2.64277911    
  0.171149999       2.65538597    
  0.171360001       2.66792369    
  0.171570003       2.68038392    
  0.171780005       2.69275880    
  0.171990007       2.70504069    
  0.172199994       2.71722269    
  0.172409996       2.72929740    
  0.172619998       2.74125814    
  0.172830001       2.75309873    
  0.173040003       2.76481295    
  0.173250005       2.77639532    
  0.173460007       2.78784108    
  0.173669994       2.79914570    
  0.173879996       2.81030464    
  0.174089998       2.82131481    
  0.174300000       2.83217287    
  0.174510002       2.84287572    
  0.174720004       2.85342145    
  0.174930006       2.86380792    
  0.175139993       2.87403440    
  0.175349995       2.88409972    
  0.175559998       2.89400387    
  0.175770000       2.90374756    
  0.175980002       2.91333127    
  0.176190004       2.92275643    
  0.176400006       2.93202472    
  0.176609993       2.94113803    
  0.176819995       2.95009899    
  0.177029997       2.95891023    
  0.177239999       2.96757555    
  0.177450001       2.97609854    
  0.177660003       2.98448348    
  0.177870005       2.99273443    
  0.178080007       3.00085568    
  0.178289995       3.00885248    
  0.178499997       3.01672935    
  0.178709999       3.02449179    
  0.178920001       3.03214550    
  0.179130003       3.03969550    
  0.179340005       3.04714775    
  0.179550007       3.05450797    
  0.179759994       3.06178236    