   0.00000000       0.00000000    
   4.99999987E-05   0.00000000    
   9.99999975E-05   0.00000000    
   1.50000007E-04   0.00000000    
   1.99999995E-04   2.41855563E-24
   2.50000012E-04   2.47080229E-23
   3.00000014E-04   1.36333113E-22
   3.49999988E-04   5.41660473E-22
   3.99999990E-04   1.73863893E-21
   4.49999992E-04   4.79238599E-21
   5.00000024E-04   1.17728893E-20
   5.49999997E-04   2.64169515E-20
   6.00000028E-04   5.50859895E-20
   6.50000002E-04   1.08103840E-19
   6.99999975E-04   2.01571585E-19
   7.50000007E-04   3.59769386E-19
   7.99999980E-04   6.18269480E-19
   8.50000011E-04   1.02790002E-18
   8.99999985E-04   1.65971236E-18
   9.50000016E-04   2.61111596E-18
   1.00000005E-03   4.01336990E-18
   1.04999996E-03   6.04062208E-18
   1.09999999E-03   8.92072104E-18
   1.15000003E-03   1.29479979E-17
   1.20000006E-03   1.84983029E-17
   1.24999997E-03   2.60464980E-17
   1.30000000E-03   3.61867430E-17
   1.35000004E-03   4.96557647E-17
   1.39999995E-03   6.73595143E-17
   1.44999998E-03   9.04034228E-17
   1.50000001E-03   1.20126557E-16
   1.55000004E-03   1.58140151E-16
   1.59999996E-03   2.06370657E-16
   1.64999999E-03   2.67107790E-16
   1.70000002E-03   3.43057740E-16
   1.75000005E-03   4.37402388E-16
   1.79999997E-03   5.53863833E-16
   1.85000000E-03   6.96775496E-16
   1.90000003E-03   8.71160893E-16
   1.94999995E-03   1.08281801E-15
   2.00000009E-03   1.33841190E-15
   2.05000001E-03   1.64557358E-15
   2.09999993E-03   2.01301022E-15
   2.15000007E-03   2.45062069E-15
   2.19999999E-03   2.96961916E-15
   2.24999990E-03   3.58267069E-15
   2.30000005E-03   4.30403487E-15
   2.34999997E-03   5.14971807E-15
   2.40000011E-03   6.13763335E-15
   2.45000003E-03   7.28777576E-15
   2.49999994E-03   8.62240492E-15
   2.55000009E-03   1.01662343E-14
   2.60000001E-03   1.19466340E-14
   2.64999992E-03   1.39938457E-14
   2.70000007E-03   1.63412103E-14
   2.74999999E-03   1.90253900E-14
   2.79999990E-03   2.20866179E-14
   2.85000005E-03   2.55689584E-14
   2.89999996E-03   2.95205585E-14
   2.95000011E-03   3.39939191E-14
   3.00000003E-03   3.90462029E-14
   3.04999994E-03   4.47395146E-14
   3.10000009E-03   5.11411592E-14
   3.15000000E-03   5.83240460E-14
   3.19999992E-03   6.63668949E-14
   3.25000007E-03   7.53546395E-14
   3.29999998E-03   8.53787120E-14
   3.34999990E-03   9.65374089E-14
   3.40000005E-03   1.08936203E-13
   3.44999996E-03   1.22688074E-13
   3.50000011E-03   1.37913918E-13
   3.55000002E-03   1.54742863E-13
   3.59999994E-03   1.73312604E-13
   3.65000009E-03   1.93769764E-13
   3.70000000E-03   2.16270131E-13
   3.74999992E-03   2.40979301E-13
   3.80000006E-03   2.68072619E-13
   3.84999998E-03   2.97735794E-13
   3.89999989E-03   3.30165013E-13
   3.94999981E-03   3.65567602E-13
   4.00000019E-03   4.04161893E-13
   4.05000011E-03   4.46177708E-13
   4.10000002E-03   4.91856610E-13
   4.14999994E-03   5.41452029E-13
   4.19999985E-03   5.95229812E-13
   4.25000023E-03   6.53468219E-13
   4.30000015E-03   7.16458034E-13
   4.35000006E-03   7.84502454E-13
   4.39999998E-03   8.57918066E-13
   4.44999989E-03   9.37034087E-13
   4.49999981E-03   1.02219242E-12
   4.55000019E-03   1.11374820E-12
   4.60000010E-03   1.21206972E-12
   4.65000002E-03   1.31753755E-12
   4.69999993E-03   1.43054524E-12
   4.74999985E-03   1.55149819E-12
   4.80000023E-03   1.68081521E-12
   4.85000014E-03   1.81892609E-12
   4.90000006E-03   1.96627176E-12
   4.94999997E-03   2.12330544E-12
   4.99999989E-03   2.29049028E-12
   5.04999980E-03   2.46829922E-12
   5.10000018E-03   2.65721473E-12
   5.15000010E-03   2.85772643E-12
   5.20000001E-03   3.07033327E-12
   5.24999993E-03   3.29554114E-12
   5.29999984E-03   3.53386135E-12
   5.35000023E-03   3.78580804E-12
   5.40000014E-03   4.05190031E-12
   5.45000006E-03   4.33265836E-12
   5.49999997E-03   4.62860349E-12
   5.54999989E-03   4.94025437E-12
   5.59999980E-03   5.26812925E-12
   5.65000018E-03   5.61274117E-12
   5.70000010E-03   5.97459538E-12
   5.75000001E-03   6.35418844E-12
   5.79999993E-03   6.75201084E-12
   5.84999984E-03   7.16853269E-12
   5.90000022E-03   7.60421066E-12
   5.95000014E-03   8.05948537E-12
   6.00000005E-03   8.53477618E-12
   6.04999997E-03   9.03047862E-12
   6.09999988E-03   9.54695871E-12
   6.14999980E-03   1.00845486E-11
   6.20000018E-03   1.06435563E-11
   6.25000009E-03   1.12242507E-11
   6.30000001E-03   1.18268555E-11
   6.34999992E-03   1.24515476E-11
   6.39999984E-03   1.30984563E-11
   6.45000022E-03   1.37676606E-11
   6.50000013E-03   1.44591804E-11
   6.55000005E-03   1.51729723E-11
   6.59999996E-03   1.59089252E-11
   6.64999988E-03   1.66668589E-11
   6.69999979E-03   1.74465165E-11
   6.75000018E-03   1.82475528E-11
   6.80000009E-03   1.90695446E-11
   6.85000001E-03   1.99119644E-11
   6.89999992E-03   2.07741897E-11
   6.94999984E-03   2.16554864E-11
   7.00000022E-03   2.25550186E-11
   7.05000013E-03   2.34718182E-11
   7.10000005E-03   2.44048132E-11
   7.14999996E-03   2.53527876E-11
   7.19999988E-03   2.63143795E-11
   7.24999979E-03   2.72881023E-11
   7.30000017E-03   2.82723081E-11
   7.35000009E-03   2.92651806E-11
   7.40000000E-03   3.02647386E-11
   7.44999992E-03   3.12688278E-11
   7.49999983E-03   3.22751097E-11
   7.55000021E-03   3.32810619E-11
   7.60000013E-03   3.42839680E-11
   7.65000004E-03   3.52808928E-11
   7.69999996E-03   3.62686860E-11
   7.74999987E-03   3.72439787E-11
   7.79999979E-03   3.82031629E-11
   7.84999970E-03   3.91423977E-11
   7.89999962E-03   4.00575961E-11
   7.95000046E-03   4.09444145E-11
   8.00000038E-03   4.17982211E-11
   8.05000030E-03   4.26141136E-11
   8.10000021E-03   4.33869225E-11
   8.15000013E-03   4.41111765E-11
   8.20000004E-03   4.47811059E-11
   8.24999996E-03   4.53906669E-11
   8.29999987E-03   4.59334411E-11
   8.34999979E-03   4.64026768E-11
   8.39999970E-03   4.67913347E-11
   8.44999962E-03   4.70919970E-11
   8.50000046E-03   4.72969094E-11
   8.55000038E-03   4.73979189E-11
   8.60000029E-03   4.73865738E-11
   8.65000021E-03   4.72540132E-11
   8.70000012E-03   4.69909216E-11
   8.75000004E-03   4.65876678E-11
   8.79999995E-03   4.60342077E-11
   8.84999987E-03   4.53200776E-11
   8.89999978E-03   4.44344665E-11
   8.94999970E-03   4.33660052E-11
   8.99999961E-03   4.21029878E-11
   9.05000046E-03   4.06332711E-11
   9.10000037E-03   3.89442541E-11
   9.15000029E-03   3.70228292E-11
   9.20000020E-03   3.48555768E-11
   9.25000012E-03   3.24285702E-11
   9.30000003E-03   2.97273595E-11
   9.34999995E-03   2.67371160E-11
   9.39999986E-03   2.34425864E-11
   9.44999978E-03   1.98279379E-11
   9.49999969E-03   1.58768398E-11
   9.54999961E-03   1.15725493E-11
   9.60000046E-03   6.89790889E-12
   9.65000037E-03   1.83528431E-12
   9.70000029E-03  -3.63346918E-12
   9.75000020E-03  -9.52695388E-12
   9.80000012E-03  -1.58642058E-11
   9.85000003E-03  -2.26648388E-11
   9.89999995E-03  -2.99488871E-11
   9.94999986E-03  -3.77366645E-11
   9.99999978E-03  -4.60490812E-11
   1.00499997E-02  -5.49075160E-11
   1.00999996E-02  -6.43337258E-11
   1.01500005E-02  -7.43498180E-11
   1.02000004E-02  -8.49784618E-11
   1.02500003E-02  -9.62426527E-11
   1.03000002E-02  -1.08165740E-10
   1.03500001E-02  -1.20771490E-10
   1.04000000E-02  -1.34084160E-10
   1.04499999E-02  -1.48128107E-10
   1.04999999E-02  -1.62928157E-10
   1.05499998E-02  -1.78509471E-10
   1.05999997E-02  -1.94897570E-10
   1.06499996E-02  -2.12118156E-10
   1.07000005E-02  -2.30197056E-10
   1.07500004E-02  -2.49160498E-10
   1.08000003E-02  -2.69034905E-10
   1.08500002E-02  -2.89847008E-10
   1.09000001E-02  -3.11623533E-10
   1.09500000E-02  -3.34391098E-10
   1.09999999E-02  -3.58176822E-10
   1.10499999E-02  -3.83007737E-10
   1.10999998E-02  -4.08910850E-10
   1.11499997E-02  -4.35913278E-10
   1.11999996E-02  -4.64041972E-10
   1.12500004E-02  -4.93323771E-10
   1.13000004E-02  -5.23785681E-10
   1.13500003E-02  -5.55454349E-10
   1.14000002E-02  -5.88356308E-10
   1.14500001E-02  -6.22517538E-10
   1.15000000E-02  -6.57964017E-10
   1.15499999E-02  -6.94721392E-10
   1.15999999E-02  -7.32814809E-10
   1.16499998E-02  -7.72268915E-10
   1.16999997E-02  -8.13108025E-10
   1.17499996E-02  -8.55356008E-10
   1.18000004E-02  -8.99035735E-10
   1.18500004E-02  -9.44169742E-10
   1.19000003E-02  -9.90779792E-10
   1.19500002E-02  -1.03888687E-09
   1.20000001E-02  -1.08851073E-09
   1.20500000E-02  -1.13967047E-09
   1.20999999E-02  -1.19238464E-09
   1.21499998E-02  -1.24666999E-09
   1.21999998E-02  -1.30254274E-09
   1.22499997E-02  -1.36001765E-09
   1.22999996E-02  -1.41910828E-09
   1.23500004E-02  -1.47982648E-09
   1.24000004E-02  -1.54218305E-09
   1.24500003E-02  -1.60618741E-09
   1.25000002E-02  -1.67184699E-09
   1.25500001E-02  -1.73916814E-09
   1.26000000E-02  -1.80815496E-09
   1.26499999E-02  -1.87880977E-09
   1.26999998E-02  -1.95113325E-09
   1.27499998E-02  -2.02512362E-09
   1.27999997E-02  -2.10077733E-09
   1.28499996E-02  -2.17808838E-09
   1.29000004E-02  -2.25704899E-09
   1.29500004E-02  -2.33764874E-09
   1.30000003E-02  -2.41987430E-09
   1.30500002E-02  -2.50371013E-09
   1.31000001E-02  -2.58913846E-09
   1.31500000E-02  -2.67613820E-09
   1.31999999E-02  -2.76468559E-09
   1.32499998E-02  -2.85475377E-09
   1.32999998E-02  -2.94631319E-09
   1.33499997E-02  -3.03933057E-09
   1.33999996E-02  -3.13376991E-09
   1.34500004E-02  -3.22959126E-09
   1.35000004E-02  -3.32675198E-09
   1.35500003E-02  -3.42520545E-09
   1.36000002E-02  -3.52490126E-09
   1.36500001E-02  -3.62578501E-09
   1.37000000E-02  -3.72779940E-09
   1.37499999E-02  -3.83088183E-09
   1.37999998E-02  -3.93496702E-09
   1.38499998E-02  -4.03998435E-09
   1.38999997E-02  -4.14585966E-09
   1.39499996E-02  -4.25251345E-09
   1.40000004E-02  -4.35986314E-09
   1.40500003E-02  -4.46782078E-09
   1.41000003E-02  -4.57629312E-09
   1.41500002E-02  -4.68518335E-09
   1.42000001E-02  -4.79438933E-09
   1.42500000E-02  -4.90380314E-09
   1.42999999E-02  -5.01331243E-09
   1.43499998E-02  -5.12280041E-09
   1.43999998E-02  -5.23214361E-09
   1.44499997E-02  -5.34121458E-09
   1.44999996E-02  -5.44987966E-09
   1.45500004E-02  -5.55799984E-09
   1.46000003E-02  -5.66542990E-09
   1.46500003E-02  -5.77202020E-09
   1.47000002E-02  -5.87761440E-09
   1.47500001E-02  -5.98205085E-09
   1.48000000E-02  -6.08516215E-09
   1.48499999E-02  -6.18677332E-09
   1.48999998E-02  -6.28670582E-09
   1.49499997E-02  -6.38477315E-09
   1.49999997E-02  -6.48078391E-09
   1.50499996E-02  -6.57454047E-09
   1.51000004E-02  -6.66583677E-09
   1.51500003E-02  -6.75446277E-09
   1.52000003E-02  -6.84020218E-09
   1.52500002E-02  -6.92283031E-09
   1.53000001E-02  -7.00211844E-09
   1.53500000E-02  -7.07782943E-09
   1.53999999E-02  -7.14972170E-09
   1.54499998E-02  -7.21754567E-09
   1.54999997E-02  -7.28104643E-09
   1.55499997E-02  -7.33996108E-09
   1.55999996E-02  -7.39402184E-09
   1.56500004E-02  -7.44295470E-09
   1.56999994E-02  -7.48647722E-09
   1.57500003E-02  -7.52430207E-09
   1.57999992E-02  -7.55613527E-09
   1.58500001E-02  -7.58167484E-09
   1.59000009E-02  -7.60061614E-09
   1.59499999E-02  -7.61264651E-09
   1.60000008E-02  -7.61744534E-09
   1.60499997E-02  -7.61468844E-09
   1.61000006E-02  -7.60404362E-09
   1.61499996E-02  -7.58517515E-09
   1.62000004E-02  -7.55773932E-09
   1.62499994E-02  -7.52138796E-09
   1.63000003E-02  -7.47576756E-09
   1.63499992E-02  -7.42051576E-09
   1.64000001E-02  -7.35526973E-09
   1.64500009E-02  -7.27965643E-09
   1.64999999E-02  -7.19330195E-09
   1.65500008E-02  -7.09582615E-09
   1.65999997E-02  -6.98684222E-09
   1.66500006E-02  -6.86596158E-09
   1.66999996E-02  -6.73279033E-09
   1.67500004E-02  -6.58692878E-09
   1.67999994E-02  -6.42797460E-09
   1.68500002E-02  -6.25552099E-09
   1.68999992E-02  -6.06915673E-09
   1.69500001E-02  -5.86846971E-09
   1.70000009E-02  -5.65304559E-09
   1.70499999E-02  -5.42246470E-09
   1.71000008E-02  -5.17630472E-09
   1.71499997E-02  -4.91414154E-09
   1.72000006E-02  -4.63555017E-09
   1.72499996E-02  -4.34010206E-09
   1.73000004E-02  -4.02736866E-09
   1.73499994E-02  -3.69692099E-09
   1.74000002E-02  -3.34832850E-09
   1.74499992E-02  -2.98116132E-09
   1.75000001E-02  -2.59498623E-09
   1.75500009E-02  -2.18937424E-09
   1.75999999E-02  -1.76389592E-09
   1.76500008E-02  -1.31812339E-09
   1.76999997E-02  -8.51631210E-10
   1.77500006E-02  -3.63993502E-10
   1.77999996E-02   1.45211371E-10
   1.78500004E-02   6.76400491E-10
   1.78999994E-02   1.22999100E-09
   1.79500002E-02   1.80639570E-09
   1.79999992E-02   2.40602005E-09
   1.80500001E-02   3.02926573E-09
   1.81000009E-02   3.67652975E-09
   1.81499999E-02   4.34820446E-09
   1.82000007E-02   5.04467446E-09
   1.82499997E-02   5.76631676E-09
   1.83000006E-02   6.51350129E-09
   1.83499996E-02   7.28659000E-09
   1.84000004E-02   8.08593814E-09
   1.84499994E-02   8.91188634E-09
   1.85000002E-02   9.76476944E-09
   1.85499992E-02   1.06449125E-08
   1.86000001E-02   1.15526291E-08
   1.86500009E-02   1.24882202E-08
   1.86999999E-02   1.34519720E-08
   1.87500007E-02   1.44441623E-08
   1.87999997E-02   1.54650497E-08
   1.88500006E-02   1.65148855E-08
   1.88999996E-02   1.75938979E-08
   1.89500004E-02   1.87023073E-08
   1.89999994E-02   1.98403125E-08
   1.90500002E-02   2.10081019E-08
   1.90999992E-02   2.22058372E-08
   1.91500001E-02   2.34336657E-08
   1.92000009E-02   2.46917189E-08
   1.92499999E-02   2.59800998E-08
   1.93000007E-02   2.72989045E-08
   1.93499997E-02   2.86481949E-08
   1.94000006E-02   3.00280156E-08
   1.94499996E-02   3.14383861E-08
   1.95000004E-02   3.28793028E-08
   1.95499994E-02   3.43507480E-08
   1.96000002E-02   3.58526648E-08
   1.96499992E-02   3.73849751E-08
   1.97000001E-02   3.89475794E-08
   1.97500009E-02   4.05403426E-08
   1.97999999E-02   4.21631086E-08
   1.98500007E-02   4.38156889E-08
   1.98999997E-02   4.54978633E-08
   1.99500006E-02   4.72093866E-08
   1.99999996E-02   4.89499818E-08
   2.00500004E-02   5.07193327E-08
   2.00999994E-02   5.25170982E-08
   2.01500002E-02   5.43429088E-08
   2.01999992E-02   5.61963418E-08
   2.02500001E-02   5.80769637E-08
   2.03000009E-02   5.99842878E-08
   2.03499999E-02   6.19177953E-08
   2.04000007E-02   6.38769322E-08
   2.04499997E-02   6.58611086E-08
   2.05000006E-02   6.78696992E-08
   2.05499995E-02   6.99020291E-08
   2.06000004E-02   7.19573947E-08
   2.06499994E-02   7.40350359E-08
   2.07000002E-02   7.61341710E-08
   2.07499992E-02   7.82539686E-08
   2.08000001E-02   8.03935549E-08
   2.08500009E-02   8.25520132E-08
   2.08999999E-02   8.47283843E-08
   2.09500007E-02   8.69216592E-08
   2.09999997E-02   8.91307934E-08
   2.10500006E-02   9.13546927E-08
   2.10999995E-02   9.35922202E-08
   2.11500004E-02   9.58421893E-08
   2.11999994E-02   9.81033708E-08
   2.12500002E-02   1.00374479E-07
   2.12999992E-02   1.02654191E-07
   2.13500001E-02   1.04941137E-07
   2.14000009E-02   1.07233895E-07
   2.14499999E-02   1.09530987E-07
   2.15000007E-02   1.11830900E-07
   2.15499997E-02   1.14132057E-07
   2.16000006E-02   1.16432851E-07
   2.16499995E-02   1.18731606E-07
   2.17000004E-02   1.21026602E-07
   2.17499994E-02   1.23316084E-07
   2.18000002E-02   1.25598220E-07
   2.18499992E-02   1.27871161E-07
   2.19000001E-02   1.30132960E-07
   2.19500009E-02   1.32381672E-07
   2.19999999E-02   1.34615263E-07
   2.20500007E-02   1.36831659E-07
   2.20999997E-02   1.39028771E-07
   2.21500006E-02   1.41204396E-07
   2.21999995E-02   1.43356317E-07
   2.22500004E-02   1.45482289E-07
   2.22999994E-02   1.47579982E-07
   2.23500002E-02   1.49647008E-07
   2.23999992E-02   1.51680965E-07
   2.24500000E-02   1.53679366E-07
   2.25000009E-02   1.55639725E-07
   2.25499999E-02   1.57559484E-07
   2.26000007E-02   1.59436013E-07
   2.26499997E-02   1.61266655E-07
   2.27000006E-02   1.63048711E-07
   2.27499995E-02   1.64779422E-07
   2.28000004E-02   1.66456033E-07
   2.28499994E-02   1.68075672E-07
   2.29000002E-02   1.69635470E-07
   2.29499992E-02   1.71132513E-07
   2.30000000E-02   1.72563830E-07
   2.30500009E-02   1.73926409E-07
   2.30999999E-02   1.75217210E-07
   2.31500007E-02   1.76433161E-07
   2.31999997E-02   1.77571138E-07
   2.32500006E-02   1.78628000E-07
   2.32999995E-02   1.79600534E-07
   2.33500004E-02   1.80485543E-07
   2.33999994E-02   1.81279773E-07
   2.34500002E-02   1.81979928E-07
   2.34999992E-02   1.82582681E-07
   2.35500000E-02   1.83084708E-07
   2.36000009E-02   1.83482641E-07
   2.36499999E-02   1.83773082E-07
   2.37000007E-02   1.83952622E-07
   2.37499997E-02   1.84017807E-07
   2.38000005E-02   1.83965184E-07
   2.38499995E-02   1.83791315E-07
   2.39000004E-02   1.83492659E-07
   2.39499994E-02   1.83065765E-07
   2.40000002E-02   1.82507108E-07
   2.40499992E-02   1.81813164E-07
   2.41000000E-02   1.80980422E-07
   2.41500009E-02   1.80005330E-07
   2.41999999E-02   1.78884378E-07
   2.42500007E-02   1.77613998E-07
   2.42999997E-02   1.76190667E-07
   2.43500005E-02   1.74610889E-07
   2.43999995E-02   1.72871140E-07
   2.44500004E-02   1.70967922E-07
   2.44999994E-02   1.68897714E-07
   2.45500002E-02   1.66657017E-07
   2.45999992E-02   1.64242380E-07
   2.46500000E-02   1.61650377E-07
   2.47000009E-02   1.58877597E-07
   2.47499999E-02   1.55920645E-07
   2.48000007E-02   1.52776167E-07
   2.48499997E-02   1.49440837E-07
   2.49000005E-02   1.45911386E-07
   2.49499995E-02   1.42184575E-07
   2.50000004E-02   1.38257164E-07
   2.50499994E-02   1.34126012E-07
   2.51000002E-02   1.29787978E-07
   2.51499992E-02   1.25240021E-07
   2.52000000E-02   1.20479157E-07
   2.52500009E-02   1.15502424E-07
   2.52999999E-02   1.10306971E-07
   2.53500007E-02   1.04889928E-07
   2.53999997E-02   9.92485596E-08
   2.54500005E-02   9.33802298E-08
   2.54999995E-02   8.72823236E-08
   2.55500004E-02   8.09523542E-08
   2.55999994E-02   7.43878914E-08
   2.56500002E-02   6.75865834E-08
   2.56999992E-02   6.05461778E-08
   2.57500000E-02   5.32645110E-08
   2.58000009E-02   4.57395402E-08
   2.58499999E-02   3.79693361E-08
   2.59000007E-02   2.99520444E-08
   2.59499997E-02   2.16859295E-08
   2.60000005E-02   1.31693625E-08
   2.60499995E-02   4.40085435E-09
   2.61000004E-02  -4.62094052E-09
   2.61499994E-02  -1.38972540E-08
   2.62000002E-02  -2.34292497E-08
   2.62499992E-02  -3.32179262E-08
   2.63000000E-02  -4.32640590E-08
   2.63500009E-02  -5.35683675E-08
   2.63999999E-02  -6.41314273E-08
   2.64500007E-02  -7.49536113E-08
   2.64999997E-02  -8.60352003E-08
   2.65500005E-02  -9.73762866E-08
   2.65999995E-02  -1.08976757E-07
   2.66500004E-02  -1.20836404E-07
   2.66999993E-02  -1.32954796E-07
   2.67500002E-02  -1.45331370E-07
   2.67999992E-02  -1.57965331E-07
   2.68500000E-02  -1.70855770E-07
   2.69000009E-02  -1.84001578E-07
   2.69499999E-02  -1.97401391E-07
   2.70000007E-02  -2.11053717E-07
   2.70499997E-02  -2.24956878E-07
   2.71000005E-02  -2.39108942E-07
   2.71499995E-02  -2.53507807E-07
   2.72000004E-02  -2.68151155E-07
   2.72499993E-02  -2.83036428E-07
   2.73000002E-02  -2.98160927E-07
   2.73499992E-02  -3.13521724E-07
   2.74000000E-02  -3.29115608E-07
   2.74500009E-02  -3.44939195E-07
   2.74999999E-02  -3.60988793E-07
   2.75500007E-02  -3.77260619E-07
   2.75999997E-02  -3.93750582E-07
   2.76500005E-02  -4.10454334E-07
   2.76999995E-02  -4.27367297E-07
   2.77500004E-02  -4.44484698E-07
   2.77999993E-02  -4.61801449E-07
   2.78500002E-02  -4.79312291E-07
   2.78999992E-02  -4.97011683E-07
   2.79500000E-02  -5.14893827E-07
   2.80000009E-02  -5.32952640E-07
   2.80499998E-02  -5.51181927E-07
   2.81000007E-02  -5.69575093E-07
   2.81499997E-02  -5.88125260E-07
   2.82000005E-02  -6.06825381E-07
   2.82499995E-02  -6.25668179E-07
   2.83000004E-02  -6.44645979E-07
   2.83499993E-02  -6.63750995E-07
   2.84000002E-02  -6.82975042E-07
   2.84499992E-02  -7.02309762E-07
   2.85000000E-02  -7.21746403E-07
   2.85500009E-02  -7.41276153E-07
   2.85999998E-02  -7.60889748E-07
   2.86500007E-02  -7.80577750E-07
   2.86999997E-02  -8.00330383E-07
   2.87500005E-02  -8.20137643E-07
   2.87999995E-02  -8.39989241E-07
   2.88500004E-02  -8.59874660E-07
   2.88999993E-02  -8.79783101E-07
   2.89500002E-02  -8.99703423E-07
   2.89999992E-02  -9.19624313E-07
   2.90500000E-02  -9.39534175E-07
   2.91000009E-02  -9.59421072E-07
   2.91499998E-02  -9.79272841E-07
   2.92000007E-02  -9.99077201E-07
   2.92499997E-02  -1.01882131E-06
   2.93000005E-02  -1.03849243E-06
   2.93499995E-02  -1.05807726E-06
   2.94000003E-02  -1.07756239E-06
   2.94499993E-02  -1.09693417E-06
   2.95000002E-02  -1.11617851E-06
   2.95499992E-02  -1.13528142E-06
   2.96000000E-02  -1.15422836E-06
   2.96500009E-02  -1.17300476E-06
   2.96999998E-02  -1.19159552E-06
   2.97500007E-02  -1.20998573E-06
   2.97999997E-02  -1.22815993E-06
   2.98500005E-02  -1.24610256E-06
   2.98999995E-02  -1.26379780E-06
   2.99500003E-02  -1.28122952E-06
   2.99999993E-02  -1.29838179E-06
   3.00500002E-02  -1.31523791E-06
   3.00999992E-02  -1.33178139E-06
   3.01500000E-02  -1.34799541E-06
   3.02000009E-02  -1.36386291E-06
   3.02499998E-02  -1.37936672E-06
   3.03000007E-02  -1.39448957E-06
   3.03499997E-02  -1.40921395E-06
   3.04000005E-02  -1.42352201E-06
   3.04499995E-02  -1.43739601E-06
   3.05000003E-02  -1.45081799E-06
   3.05499993E-02  -1.46376965E-06
   3.06000002E-02  -1.47623280E-06
   3.06499992E-02  -1.48818924E-06
   3.07000000E-02  -1.49962034E-06
   3.07500008E-02  -1.51050756E-06
   3.07999998E-02  -1.52083203E-06
   3.08500007E-02  -1.53057499E-06
   3.08999997E-02  -1.53971780E-06
   3.09500005E-02  -1.54824136E-06
   3.09999995E-02  -1.55612679E-06
   3.10500003E-02  -1.56335500E-06
   3.10999993E-02  -1.56990700E-06
   3.11500002E-02  -1.57576346E-06
   3.11999992E-02  -1.58090540E-06
   3.12500000E-02  -1.58531373E-06
   3.13000008E-02  -1.58896910E-06
   3.13500017E-02  -1.59185265E-06
   3.13999988E-02  -1.59394494E-06
   3.14499997E-02  -1.59522733E-06
   3.15000005E-02  -1.59568049E-06
   3.15500014E-02  -1.59528554E-06
   3.15999985E-02  -1.59402362E-06
   3.16499993E-02  -1.59187596E-06
   3.17000002E-02  -1.58882403E-06
   3.17500010E-02  -1.58484909E-06
   3.18000019E-02  -1.57993270E-06
   3.18499990E-02  -1.57405657E-06
   3.18999998E-02  -1.56720250E-06
   3.19500007E-02  -1.55935254E-06
   3.20000015E-02  -1.55048883E-06
   3.20499986E-02  -1.54059376E-06
   3.20999995E-02  -1.52964981E-06
   3.21500003E-02  -1.51764004E-06
   3.22000012E-02  -1.50454741E-06
   3.22499983E-02  -1.49035509E-06
   3.22999991E-02  -1.47504647E-06
   3.23500000E-02  -1.45860531E-06
   3.24000008E-02  -1.44101614E-06
   3.24500017E-02  -1.42226327E-06
   3.24999988E-02  -1.40233124E-06
   3.25499997E-02  -1.38120527E-06
   3.26000005E-02  -1.35887103E-06
   3.26500013E-02  -1.33531410E-06
   3.26999985E-02  -1.31052047E-06
   3.27499993E-02  -1.28447687E-06
   3.28000002E-02  -1.25717042E-06
   3.28500010E-02  -1.22858864E-06
   3.29000019E-02  -1.19871936E-06
   3.29499990E-02  -1.16755086E-06
   3.29999998E-02  -1.13507201E-06
   3.30500007E-02  -1.10127223E-06
   3.31000015E-02  -1.06614095E-06
   3.31499986E-02  -1.02966874E-06
   3.31999995E-02  -9.91846491E-07
   3.32500003E-02  -9.52665857E-07
   3.33000012E-02  -9.12118765E-07
   3.33499983E-02  -8.70197880E-07
   3.33999991E-02  -8.26896155E-07
   3.34500000E-02  -7.82207280E-07
   3.35000008E-02  -7.36126253E-07
   3.35500017E-02  -6.88648129E-07
   3.35999988E-02  -6.39768473E-07
   3.36499996E-02  -5.89483761E-07
   3.37000005E-02  -5.37791038E-07
   3.37500013E-02  -4.84688201E-07
   3.37999985E-02  -4.30173969E-07
   3.38499993E-02  -3.74247691E-07
   3.39000002E-02  -3.16909137E-07
   3.39500010E-02  -2.58159332E-07
   3.40000018E-02  -1.97999952E-07
   3.40499990E-02  -1.36433485E-07
   3.40999998E-02  -7.34630419E-08
   3.41500007E-02  -9.09271147E-09
   3.42000015E-02   5.66723770E-08
   3.42499986E-02   1.23826794E-07
   3.42999995E-02   1.92364027E-07
   3.43500003E-02   2.62276728E-07
   3.44000012E-02   3.33556216E-07
   3.44499983E-02   4.06193436E-07
   3.44999991E-02   4.80178471E-07
   3.45500000E-02   5.55499867E-07
   3.46000008E-02   6.32145714E-07
   3.46500017E-02   7.10102995E-07
   3.46999988E-02   7.89357557E-07
   3.47499996E-02   8.69894791E-07
   3.48000005E-02   9.51698894E-07
   3.48500013E-02   1.03475315E-06
   3.48999985E-02   1.11903955E-06
   3.49499993E-02   1.20453944E-06
   3.50000001E-02   1.29123305E-06
   3.50500010E-02   1.37909933E-06
   3.51000018E-02   1.46811669E-06
   3.51499990E-02   1.55826194E-06
   3.51999998E-02   1.64951120E-06
   3.52500007E-02   1.74183936E-06
   3.53000015E-02   1.83522093E-06
   3.53499986E-02   1.92962852E-06
   3.53999995E-02   2.02503384E-06
   3.54500003E-02   2.12140799E-06
   3.55000012E-02   2.21872074E-06
   3.55499983E-02   2.31694071E-06
   3.55999991E-02   2.41603584E-06
   3.56500000E-02   2.51597203E-06
   3.57000008E-02   2.61671516E-06
   3.57500017E-02   2.71822955E-06
   3.57999988E-02   2.82047858E-06
   3.58499996E-02   2.92342452E-06
   3.59000005E-02   3.02702870E-06
   3.59500013E-02   3.13125088E-06
   3.59999985E-02   3.23605059E-06
   3.60499993E-02   3.34138554E-06
   3.61000001E-02   3.44721252E-06
   3.61500010E-02   3.55348811E-06
   3.62000018E-02   3.66016661E-06
   3.62499990E-02   3.76720163E-06
   3.62999998E-02   3.87454656E-06
   3.63500006E-02   3.98215207E-06
   3.64000015E-02   4.08996993E-06
   3.64499986E-02   4.19794969E-06
   3.64999995E-02   4.30603905E-06
   3.65500003E-02   4.41418706E-06
   3.66000012E-02   4.52233917E-06
   3.66499983E-02   4.63044171E-06
   3.66999991E-02   4.73843966E-06
   3.67500000E-02   4.84627617E-06
   3.68000008E-02   4.95389486E-06
   3.68500017E-02   5.06123752E-06
   3.68999988E-02   5.16824412E-06
   3.69499996E-02   5.27485645E-06
   3.70000005E-02   5.38101222E-06
   3.70500013E-02   5.48665093E-06
   3.70999984E-02   5.59170985E-06
   3.71499993E-02   5.69612530E-06
   3.72000001E-02   5.79983316E-06
   3.72500010E-02   5.90276932E-06
   3.73000018E-02   6.00486737E-06
   3.73499990E-02   6.10606139E-06
   3.73999998E-02   6.20628452E-06
   3.74500006E-02   6.30546765E-06
   3.75000015E-02   6.40354392E-06
   3.75499986E-02   6.50044285E-06
   3.75999995E-02   6.59609577E-06
   3.76500003E-02   6.69043129E-06
   3.77000012E-02   6.78337938E-06
   3.77499983E-02   6.87486818E-06
   3.77999991E-02   6.96482493E-06
   3.78500000E-02   7.05317825E-06
   3.79000008E-02   7.13985446E-06
   3.79500017E-02   7.22478080E-06
   3.79999988E-02   7.30788315E-06
   3.80499996E-02   7.38908693E-06
   3.81000005E-02   7.46831802E-06
   3.81500013E-02   7.54550138E-06
   3.81999984E-02   7.62056243E-06
   3.82499993E-02   7.69342569E-06
   3.83000001E-02   7.76401521E-06
   3.83500010E-02   7.83225641E-06
   3.84000018E-02   7.89807200E-06
   3.84499989E-02   7.96138647E-06
   3.84999998E-02   8.02212435E-06
   3.85500006E-02   8.08020923E-06
   3.86000015E-02   8.13556471E-06
   3.86499986E-02   8.18811532E-06
   3.86999995E-02   8.23778555E-06
   3.87500003E-02   8.28449902E-06
   3.88000011E-02   8.32818114E-06
   3.88499983E-02   8.36875552E-06
   3.88999991E-02   8.40614757E-06
   3.89500000E-02   8.44028273E-06
   3.90000008E-02   8.47108640E-06
   3.90500017E-02   8.49848493E-06
   3.90999988E-02   8.52240373E-06
   3.91499996E-02   8.54277187E-06
   3.92000005E-02   8.55951384E-06
   3.92500013E-02   8.57255964E-06
   3.92999984E-02   8.58183648E-06
   3.93499993E-02   8.58727617E-06
   3.94000001E-02   8.58880594E-06
   3.94500010E-02   8.58635849E-06
   3.95000018E-02   8.57986379E-06
   3.95499989E-02   8.56925544E-06
   3.95999998E-02   8.55446524E-06
   3.96500006E-02   8.53542861E-06
   3.97000015E-02   8.51208006E-06
   3.97499986E-02   8.48435593E-06
   3.97999994E-02   8.45219347E-06
   3.98500003E-02   8.41553083E-06
   3.99000011E-02   8.37430798E-06
   3.99499983E-02   8.32846581E-06
   3.99999991E-02   8.27794702E-06
   4.00500000E-02   8.22269431E-06
   4.01000008E-02   8.16265310E-06
   4.01500016E-02   8.09776793E-06
   4.01999988E-02   8.02798786E-06
   4.02499996E-02   7.95326014E-06
   4.03000005E-02   7.87353747E-06
   4.03500013E-02   7.78877165E-06
   4.03999984E-02   7.69891631E-06
   4.04499993E-02   7.60392777E-06
   4.05000001E-02   7.50376330E-06
   4.05500010E-02   7.39838288E-06
   4.06000018E-02   7.28774739E-06
   4.06499989E-02   7.17181911E-06
   4.06999998E-02   7.05056345E-06
   4.07500006E-02   6.92394633E-06
   4.08000015E-02   6.79193772E-06
   4.08499986E-02   6.65450943E-06
   4.08999994E-02   6.51163418E-06
   4.09500003E-02   6.36328741E-06
   4.10000011E-02   6.20944593E-06
   4.10499983E-02   6.05008972E-06
   4.10999991E-02   5.88520152E-06
   4.11499999E-02   5.71476630E-06
   4.12000008E-02   5.53877135E-06
   4.12500016E-02   5.35720483E-06
   4.12999988E-02   5.17005856E-06
   4.13499996E-02   4.97732890E-06
   4.14000005E-02   4.77900994E-06
   4.14500013E-02   4.57510259E-06
   4.14999984E-02   4.36561004E-06
   4.15499993E-02   4.15053591E-06
   4.16000001E-02   3.92988750E-06
   4.16500010E-02   3.70367570E-06
   4.17000018E-02   3.47191326E-06
   4.17499989E-02   3.23461609E-06
   4.17999998E-02   2.99180215E-06
   4.18500006E-02   2.74349418E-06
   4.19000015E-02   2.48971605E-06
   4.19499986E-02   2.23049460E-06
   4.19999994E-02   1.96586097E-06
   4.20500003E-02   1.69584825E-06
   4.21000011E-02   1.42049373E-06
   4.21499982E-02   1.13983651E-06
   4.21999991E-02   8.53918664E-07
   4.22499999E-02   5.62785715E-07
   4.23000008E-02   2.66486808E-07
   4.23500016E-02  -3.49258968E-08
   4.23999988E-02  -3.41397310E-07
   4.24499996E-02  -6.52869517E-07
   4.25000004E-02  -9.69280904E-07
   4.25500013E-02  -1.29056741E-06
   4.25999984E-02  -1.61666185E-06
   4.26499993E-02  -1.94749077E-06
   4.27000001E-02  -2.28297995E-06
   4.27500010E-02  -2.62305252E-06
   4.28000018E-02  -2.96762869E-06