   0.00000000       0.00000000    
   4.99999987E-05   0.00000000    
   9.99999975E-05   0.00000000    
   1.50000007E-04   0.00000000    
   1.99999995E-04  -1.34694413E-25
   2.50000012E-04  -1.36618491E-24
   3.00000014E-04  -7.48164597E-24
   3.49999988E-04  -2.94950896E-23
   3.99999990E-04  -9.39269732E-23
   4.49999992E-04  -2.56817921E-22
   5.00000024E-04  -6.25724117E-22
   5.49999997E-04  -1.39232996E-21
   6.00000028E-04  -2.87867173E-21
   6.50000002E-04  -5.60033425E-21
   6.99999975E-04  -1.03502323E-20
   7.50000007E-04  -1.83069254E-20
   7.99999980E-04  -3.11716002E-20
   8.50000011E-04  -5.13379437E-20
   8.99999985E-04  -8.20991169E-20
   9.50000016E-04  -1.27896327E-19
   1.00000005E-03  -1.94612786E-19
   1.04999996E-03  -2.89916956E-19
   1.09999999E-03  -4.23658594E-19
   1.15000003E-03  -6.08320255E-19
   1.20000006E-03  -8.59524925E-19
   1.24999997E-03  -1.19660402E-18
   1.30000000E-03  -1.64322241E-18
   1.35000004E-03  -2.22805958E-18
   1.39999995E-03  -2.98554919E-18
   1.44999998E-03  -3.95666295E-18
   1.50000001E-03  -5.18974109E-18
   1.55000004E-03  -6.74135780E-18
   1.59999996E-03  -8.67720569E-18
   1.64999999E-03  -1.10729813E-17
   1.70000002E-03  -1.40152718E-17
   1.75000005E-03  -1.76024167E-17
   1.79999997E-03  -2.19452902E-17
   1.85000000E-03  -2.71680226E-17
   1.90000003E-03  -3.34086173E-17
   1.94999995E-03  -4.08193846E-17
   2.00000009E-03  -4.95671174E-17
   2.05000001E-03  -5.98331567E-17
   2.09999993E-03  -7.18130812E-17
   2.15000007E-03  -8.57160285E-17
   2.19999999E-03  -1.01763710E-16
   2.24999990E-03  -1.20188721E-16
   2.30000005E-03  -1.41232341E-16
   2.34999997E-03  -1.65141607E-16
   2.40000011E-03  -1.92165928E-16
   2.45000003E-03  -2.22552534E-16
   2.49999994E-03  -2.56541028E-16
   2.55000009E-03  -2.94356946E-16
   2.60000001E-03  -3.36203762E-16
   2.64999992E-03  -3.82253581E-16
   2.70000007E-03  -4.32636716E-16
   2.74999999E-03  -4.87429345E-16
   2.79999990E-03  -5.46639648E-16
   2.85000005E-03  -6.10190941E-16
   2.89999996E-03  -6.77902808E-16
   2.95000011E-03  -7.49471004E-16
   3.00000003E-03  -8.24444431E-16
   3.04999994E-03  -9.02198191E-16
   3.10000009E-03  -9.81903462E-16
   3.15000000E-03  -1.06249579E-15
   3.19999992E-03  -1.14263760E-15
   3.25000007E-03  -1.22067834E-15
   3.29999998E-03  -1.29461140E-15
   3.34999990E-03  -1.36202601E-15
   3.40000005E-03  -1.42004735E-15
   3.44999996E-03  -1.46528282E-15
   3.50000011E-03  -1.49376166E-15
   3.55000002E-03  -1.50086001E-15
   3.59999994E-03  -1.48122811E-15
   3.65000009E-03  -1.42870381E-15
   3.70000000E-03  -1.33622571E-15
   3.74999992E-03  -1.19573651E-15
   3.80000006E-03  -9.98086344E-16
   3.84999998E-03  -7.32916592E-16
   3.89999989E-03  -3.88532610E-16
   3.94999981E-03   4.82211324E-17
   4.00000019E-03   5.92092230E-16
   4.05000011E-03   1.25956436E-15
   4.10000002E-03   2.06902345E-15
   4.14999994E-03   3.04093701E-15
   4.19999985E-03   4.19801133E-15
   4.25000023E-03   5.56538382E-15
   4.30000015E-03   7.17083863E-15
   4.35000006E-03   9.04500829E-15
   4.39999998E-03   1.12216051E-14
   4.44999989E-03   1.37376454E-14
   4.49999981E-03   1.66337433E-14
   4.55000019E-03   1.99543276E-14
   4.60000010E-03   2.37479375E-14
   4.65000002E-03   2.80675666E-14
   4.69999993E-03   3.29708862E-14
   4.74999985E-03   3.85206190E-14
   4.80000023E-03   4.47849087E-14
   4.85000014E-03   5.18376100E-14
   4.90000006E-03   5.97587640E-14
   4.94999997E-03   6.86348764E-14
   4.99999989E-03   7.85593988E-14
   5.04999980E-03   8.96331349E-14
   5.10000018E-03   1.01964695E-13
   5.15000010E-03   1.15670914E-13
   5.20000001E-03   1.30877351E-13
   5.24999993E-03   1.47718914E-13
   5.29999984E-03   1.66340127E-13
   5.35000023E-03   1.86895882E-13
   5.40000014E-03   2.09551994E-13
   5.45000006E-03   2.34485635E-13
   5.49999997E-03   2.61885891E-13
   5.54999989E-03   2.91954612E-13
   5.59999980E-03   3.24906877E-13
   5.65000018E-03   3.60971696E-13
   5.70000010E-03   4.00392528E-13
   5.75000001E-03   4.43428172E-13
   5.79999993E-03   4.90353526E-13
   5.84999984E-03   5.41460214E-13
   5.90000022E-03   5.97057072E-13
   5.95000014E-03   6.57471094E-13
   6.00000005E-03   7.23048520E-13
   6.04999997E-03   7.94155269E-13
   6.09999988E-03   8.71177750E-13
   6.14999980E-03   9.54523786E-13
   6.20000018E-03   1.04462305E-12
   6.25000009E-03   1.14192900E-12
   6.30000001E-03   1.24691858E-12
   6.34999992E-03   1.36009357E-12
   6.39999984E-03   1.48198142E-12
   6.45000022E-03   1.61313649E-12
   6.50000013E-03   1.75414024E-12
   6.55000005E-03   1.90560241E-12
   6.59999996E-03   2.06816205E-12
   6.64999988E-03   2.24248896E-12
   6.69999979E-03   2.42928355E-12
   6.75000018E-03   2.62927809E-12
   6.80000009E-03   2.84323888E-12
   6.85000001E-03   3.07196434E-12
   6.89999992E-03   3.31628930E-12
   6.94999984E-03   3.57708351E-12
   7.00000022E-03   3.85525292E-12
   7.05000013E-03   4.15174145E-12
   7.10000005E-03   4.46753138E-12
   7.14999996E-03   4.80364446E-12
   7.19999988E-03   5.16114191E-12
   7.24999979E-03   5.54112528E-12
   7.30000017E-03   5.94473862E-12
   7.35000009E-03   6.37316892E-12
   7.40000000E-03   6.82764392E-12
   7.44999992E-03   7.30943778E-12
   7.49999983E-03   7.81986888E-12
   7.55000021E-03   8.36029683E-12
   7.60000013E-03   8.93213108E-12
   7.65000004E-03   9.53682879E-12
   7.69999996E-03   1.01758888E-11
   7.74999987E-03   1.08508593E-11
   7.79999979E-03   1.15633380E-11
   7.84999970E-03   1.23149694E-11
   7.89999962E-03   1.31074439E-11
   7.95000046E-03   1.39425043E-11
   8.00000038E-03   1.48219388E-11
   8.05000030E-03   1.57475838E-11
   8.10000021E-03   1.67213257E-11
   8.15000013E-03   1.77451005E-11
   8.20000004E-03   1.88208876E-11
   8.24999996E-03   1.99507251E-11
   8.29999987E-03   2.11366862E-11
   8.34999979E-03   2.23808975E-11
   8.39999970E-03   2.36855292E-11
   8.44999962E-03   2.50528036E-11
   8.50000046E-03   2.64849843E-11
   8.55000038E-03   2.79843752E-11
   8.60000029E-03   2.95533285E-11
   8.65000021E-03   3.11942312E-11
   8.70000012E-03   3.29095258E-11
   8.75000004E-03   3.47016790E-11
   8.79999995E-03   3.65732028E-11
   8.84999987E-03   3.85266506E-11
   8.89999978E-03   4.05645934E-11
   8.94999970E-03   4.26896504E-11
   8.99999961E-03   4.49044586E-11
   9.05000046E-03   4.72116929E-11
   9.10000037E-03   4.96140490E-11
   9.15000029E-03   5.21142435E-11
   9.20000020E-03   5.47150172E-11
   9.25000012E-03   5.74191215E-11
   9.30000003E-03   6.02293354E-11
   9.34999995E-03   6.31484240E-11
   9.39999986E-03   6.61791871E-11
   9.44999978E-03   6.93244073E-11
   9.49999969E-03   7.25868671E-11
   9.54999961E-03   7.59693627E-11
   9.60000046E-03   7.94746630E-11
   9.65000037E-03   8.31055294E-11
   9.70000029E-03   8.68647029E-11
   9.75000020E-03   9.07548967E-11
   9.80000012E-03   9.47788029E-11
   9.85000003E-03   9.89390653E-11
   9.89999995E-03   1.03238307E-10
   9.94999986E-03   1.07679102E-10
   9.99999978E-03   1.12263962E-10
   1.00499997E-02   1.16995344E-10
   1.00999996E-02   1.21875648E-10
   1.01500005E-02   1.26907193E-10
   1.02000004E-02   1.32092240E-10
   1.02500003E-02   1.37432954E-10
   1.03000002E-02   1.42931389E-10
   1.03500001E-02   1.48589530E-10
   1.04000000E-02   1.54409222E-10
   1.04499999E-02   1.60392213E-10
   1.04999999E-02   1.66540143E-10
   1.05499998E-02   1.72854495E-10
   1.05999997E-02   1.79336601E-10
   1.06499996E-02   1.85987670E-10
   1.07000005E-02   1.92808727E-10
   1.07500004E-02   1.99800662E-10
   1.08000003E-02   2.06964154E-10
   1.08500002E-02   2.14299717E-10
   1.09000001E-02   2.21807642E-10
   1.09500000E-02   2.29488040E-10
   1.09999999E-02   2.37340786E-10
   1.10499999E-02   2.45365561E-10
   1.10999998E-02   2.53561727E-10
   1.11499997E-02   2.61928451E-10
   1.11999996E-02   2.70464678E-10
   1.12500004E-02   2.79168993E-10
   1.13000004E-02   2.88039786E-10
   1.13500003E-02   2.97075087E-10
   1.14000002E-02   3.06272646E-10
   1.14500001E-02   3.15629883E-10
   1.15000000E-02   3.25143912E-10
   1.15499999E-02   3.34811484E-10
   1.15999999E-02   3.44628964E-10
   1.16499998E-02   3.54592467E-10
   1.16999997E-02   3.64697605E-10
   1.17499996E-02   3.74939635E-10
   1.18000004E-02   3.85313476E-10
   1.18500004E-02   3.95813576E-10
   1.19000003E-02   4.06433914E-10
   1.19500002E-02   4.17168161E-10
   1.20000001E-02   4.28009406E-10
   1.20500000E-02   4.38950321E-10
   1.20999999E-02   4.49983190E-10
   1.21499998E-02   4.61099686E-10
   1.21999998E-02   4.72291040E-10
   1.22499997E-02   4.83548035E-10
   1.22999996E-02   4.94860763E-10
   1.23500004E-02   5.06218956E-10
   1.24000004E-02   5.17611676E-10
   1.24500003E-02   5.29027488E-10
   1.25000002E-02   5.40454459E-10
   1.25500001E-02   5.51880042E-10
   1.26000000E-02   5.63291080E-10
   1.26499999E-02   5.74673753E-10
   1.26999998E-02   5.86013793E-10
   1.27499998E-02   5.97296157E-10
   1.27999997E-02   6.08505357E-10
   1.28499996E-02   6.19625073E-10
   1.29000004E-02   6.30638486E-10
   1.29500004E-02   6.41528053E-10
   1.30000003E-02   6.52275678E-10
   1.30500002E-02   6.62862432E-10
   1.31000001E-02   6.73268885E-10
   1.31500000E-02   6.83474943E-10
   1.31999999E-02   6.93459679E-10
   1.32499998E-02   7.03201553E-10
   1.32999998E-02   7.12678416E-10
   1.33499997E-02   7.21867344E-10
   1.33999996E-02   7.30744687E-10
   1.34500004E-02   7.39286188E-10
   1.35000004E-02   7.47466922E-10
   1.35500003E-02   7.55261131E-10
   1.36000002E-02   7.62642449E-10
   1.36500001E-02   7.69583786E-10
   1.37000000E-02   7.76057385E-10
   1.37499999E-02   7.82034881E-10
   1.37999998E-02   7.87487020E-10
   1.38499998E-02   7.92384047E-10
   1.38999997E-02   7.96695487E-10
   1.39499996E-02   8.00390143E-10
   1.40000004E-02   8.03436206E-10
   1.40500003E-02   8.05801093E-10
   1.41000003E-02   8.07451828E-10
   1.41500002E-02   8.08354550E-10
   1.42000001E-02   8.08474954E-10
   1.42500000E-02   8.07778011E-10
   1.42999999E-02   8.06228140E-10
   1.43499998E-02   8.03789257E-10
   1.43999998E-02   8.00424560E-10
   1.44499997E-02   7.96096855E-10
   1.44999996E-02   7.90768340E-10
   1.45500004E-02   7.84400822E-10
   1.46000003E-02   7.76955500E-10
   1.46500003E-02   7.68393182E-10
   1.47000002E-02   7.58674124E-10
   1.47500001E-02   7.47758355E-10
   1.48000000E-02   7.35605465E-10
   1.48499999E-02   7.22174653E-10
   1.48999998E-02   7.07424841E-10
   1.49499997E-02   6.91314672E-10
   1.49999997E-02   6.73802403E-10
   1.50499996E-02   6.54846233E-10
   1.51000004E-02   6.34404085E-10
   1.51500003E-02   6.12433770E-10
   1.52000003E-02   5.88893045E-10
   1.52500002E-02   5.63739555E-10
   1.53000001E-02   5.36930889E-10
   1.53500000E-02   5.08424747E-10
   1.53999999E-02   4.78178719E-10
   1.54499998E-02   4.46150700E-10
   1.54999997E-02   4.12298640E-10
   1.55499997E-02   3.76580739E-10
   1.55999996E-02   3.38955475E-10
   1.56500004E-02   2.99381492E-10
   1.56999994E-02   2.57817989E-10
   1.57500003E-02   2.14224583E-10
   1.57999992E-02   1.68561332E-10
   1.58500001E-02   1.20788879E-10
   1.59000009E-02   7.08683529E-11
   1.59499999E-02   1.87616155E-11
   1.60000008E-02  -3.55686973E-11
   1.60499997E-02  -9.21592108E-11
   1.61000006E-02  -1.51045676E-10
   1.61499996E-02  -2.12262916E-10
   1.62000004E-02  -2.75844736E-10
   1.62499994E-02  -3.41823847E-10
   1.63000003E-02  -4.10231793E-10
   1.63499992E-02  -4.81098827E-10
   1.64000001E-02  -5.54454205E-10
   1.64500009E-02  -6.30325458E-10
   1.64999999E-02  -7.08738845E-10
   1.65500008E-02  -7.89719234E-10
   1.65999997E-02  -8.73289496E-10
   1.66500006E-02  -9.59471058E-10
   1.66999996E-02  -1.04828390E-09
   1.67500004E-02  -1.13974563E-09
   1.67999994E-02  -1.23387212E-09
   1.68500002E-02  -1.33067690E-09
   1.68999992E-02  -1.43017187E-09
   1.69500001E-02  -1.53236679E-09
   1.70000009E-02  -1.63726854E-09
   1.70499999E-02  -1.74488213E-09
   1.71000008E-02  -1.85521021E-09
   1.71499997E-02  -1.96825245E-09
   1.72000006E-02  -2.08400586E-09
   1.72499996E-02  -2.20246554E-09
   1.73000004E-02  -2.32362263E-09
   1.73499994E-02  -2.44746623E-09
   1.74000002E-02  -2.57398192E-09
   1.74499992E-02  -2.70315237E-09
   1.75000001E-02  -2.83495738E-09
   1.75500009E-02  -2.96937275E-09
   1.75999999E-02  -3.10637183E-09
   1.76500008E-02  -3.24592397E-09
   1.76999997E-02  -3.38799455E-09
   1.77500006E-02  -3.53254648E-09
   1.77999996E-02  -3.67953779E-09
   1.78500004E-02  -3.82892384E-09
   1.78999994E-02  -3.98065536E-09
   1.79500002E-02  -4.13467882E-09
   1.79999992E-02  -4.29093738E-09
   1.80500001E-02  -4.44936976E-09
   1.81000009E-02  -4.60991068E-09
   1.81499999E-02  -4.77248996E-09
   1.82000007E-02  -4.93703389E-09
   1.82499997E-02  -5.10346343E-09
   1.83000006E-02  -5.27169508E-09
   1.83499996E-02  -5.44164180E-09
   1.84000004E-02  -5.61321034E-09
   1.84499994E-02  -5.78630432E-09
   1.85000002E-02  -5.96082073E-09
   1.85499992E-02  -6.13665296E-09
   1.86000001E-02  -6.31369002E-09
   1.86500009E-02  -6.49181375E-09
   1.86999999E-02  -6.67090250E-09
   1.87500007E-02  -6.85082924E-09
   1.87999997E-02  -7.03146252E-09
   1.88500006E-02  -7.21266469E-09
   1.88999996E-02  -7.39429229E-09
   1.89500004E-02  -7.57619834E-09
   1.89999994E-02  -7.75822784E-09
   1.90500002E-02  -7.94022359E-09
   1.90999992E-02  -8.12202039E-09
   1.91500001E-02  -8.30344948E-09
   1.92000009E-02  -8.48433679E-09
   1.92499999E-02  -8.66450112E-09
   1.93000007E-02  -8.84375506E-09
   1.93499997E-02  -9.02190944E-09
   1.94000006E-02  -9.19876619E-09
   1.94499996E-02  -9.37412281E-09
   1.95000004E-02  -9.54777324E-09
   1.95499994E-02  -9.71950165E-09
   1.96000002E-02  -9.88909132E-09
   1.96499992E-02  -1.00563167E-08
   1.97000001E-02  -1.02209503E-08
   1.97500009E-02  -1.03827551E-08
   1.97999999E-02  -1.05414912E-08
   1.98500007E-02  -1.06969136E-08
   1.98999997E-02  -1.08487717E-08
   1.99500006E-02  -1.09968097E-08
   1.99999996E-02  -1.11407665E-08
   2.00500004E-02  -1.12803749E-08
   2.00999994E-02  -1.14153647E-08
   2.01500002E-02  -1.15454615E-08
   2.01999992E-02  -1.16703838E-08
   2.02500001E-02  -1.17898455E-08
   2.03000009E-02  -1.19035573E-08
   2.03499999E-02  -1.20112249E-08
   2.04000007E-02  -1.21125492E-08
   2.04499997E-02  -1.22072281E-08
   2.05000006E-02  -1.22949544E-08
   2.05499995E-02  -1.23754180E-08
   2.06000004E-02  -1.24483046E-08
   2.06499994E-02  -1.25132944E-08
   2.07000002E-02  -1.25700668E-08
   2.07499992E-02  -1.26182966E-08
   2.08000001E-02  -1.26576554E-08
   2.08500009E-02  -1.26878126E-08
   2.08999999E-02  -1.27084343E-08
   2.09500007E-02  -1.27191848E-08
   2.09999997E-02  -1.27197257E-08
   2.10500006E-02  -1.27097159E-08
   2.10999995E-02  -1.26888136E-08
   2.11500004E-02  -1.26566730E-08
   2.11999994E-02  -1.26129507E-08
   2.12500002E-02  -1.25572992E-08
   2.12999992E-02  -1.24893722E-08
   2.13500001E-02  -1.24088197E-08
   2.14000009E-02  -1.23152963E-08
   2.14499999E-02  -1.22084520E-08
   2.15000007E-02  -1.20879387E-08
   2.15499997E-02  -1.19534098E-08
   2.16000006E-02  -1.18045191E-08
   2.16499995E-02  -1.16409202E-08
   2.17000004E-02  -1.14622694E-08
   2.17499994E-02  -1.12682255E-08
   2.18000002E-02  -1.10584484E-08
   2.18499992E-02  -1.08326015E-08
   2.19000001E-02  -1.05903508E-08
   2.19500009E-02  -1.03313651E-08
   2.19999999E-02  -1.00553175E-08
   2.20500007E-02  -9.76188463E-09
   2.20999997E-02  -9.45074685E-09
   2.21500006E-02  -9.12159059E-09
   2.21999995E-02  -8.77410855E-09
   2.22500004E-02  -8.40799697E-09
   2.22999994E-02  -8.02295741E-09
   2.23500002E-02  -7.61870211E-09
   2.23999992E-02  -7.19494464E-09
   2.24500000E-02  -6.75140965E-09
   2.25000009E-02  -6.28782848E-09
   2.25499999E-02  -5.80394088E-09
   2.26000007E-02  -5.29949507E-09
   2.26499997E-02  -4.77424766E-09
   2.27000006E-02  -4.22796687E-09
   2.27499995E-02  -3.66042818E-09
   2.28000004E-02  -3.07142023E-09
   2.28499994E-02  -2.46074050E-09
   2.29000002E-02  -1.82819959E-09
   2.29499992E-02  -1.17361854E-09
   2.30000000E-02  -4.96831298E-10
   2.30500009E-02   2.02315081E-10
   2.30999999E-02   9.23960020E-10
   2.31500007E-02   1.66822944E-09
   2.31999997E-02   2.43523512E-09
   2.32500006E-02   3.22507332E-09
   2.32999995E-02   4.03782474E-09
   2.33500004E-02   4.87355623E-09
   2.33999994E-02   5.73231596E-09
   2.34500002E-02   6.61413679E-09
   2.34999992E-02   7.51903251E-09
   2.35500000E-02   8.44700221E-09
   2.36000009E-02   9.39802458E-09
   2.36499999E-02   1.03720588E-08
   2.37000007E-02   1.13690470E-08
   2.37499997E-02   1.23889086E-08
   2.38000005E-02   1.34315448E-08
   2.38499995E-02   1.44968384E-08
   2.39000004E-02   1.55846482E-08
   2.39499994E-02   1.66948091E-08
   2.40000002E-02   1.78271371E-08
   2.40499992E-02   1.89814280E-08
   2.41000000E-02   2.01574473E-08
   2.41500009E-02   2.13549427E-08
   2.41999999E-02   2.25736372E-08
   2.42500007E-02   2.38132287E-08
   2.42999997E-02   2.50733923E-08
   2.43500005E-02   2.63537725E-08
   2.43999995E-02   2.76539929E-08
   2.44500004E-02   2.89736484E-08
   2.44999994E-02   3.03123144E-08
   2.45500002E-02   3.16695328E-08
   2.45999992E-02   3.30448167E-08
   2.46500000E-02   3.44376581E-08
   2.47000009E-02   3.58475134E-08
   2.47499999E-02   3.72738214E-08
   2.48000007E-02   3.87159815E-08
   2.48499997E-02   4.01733757E-08
   2.49000005E-02   4.16453467E-08
   2.49499995E-02   4.31312124E-08
   2.50000004E-02   4.46302550E-08
   2.50499994E-02   4.61417393E-08
   2.51000002E-02   4.76648907E-08
   2.51499992E-02   4.91989098E-08
   2.52000000E-02   5.07429618E-08
   2.52500009E-02   5.22961834E-08
   2.52999999E-02   5.38576828E-08
   2.53500007E-02   5.54265291E-08
   2.53999997E-02   5.70017775E-08
   2.54500005E-02   5.85824367E-08
   2.54999995E-02   6.01674870E-08
   2.55500004E-02   6.17558769E-08
   2.55999994E-02   6.33465405E-08
   2.56500002E-02   6.49383551E-08
   2.56999992E-02   6.65301769E-08
   2.57500000E-02   6.81208476E-08
   2.58000009E-02   6.97091380E-08
   2.58499999E-02   7.12938331E-08
   2.59000007E-02   7.28736609E-08
   2.59499997E-02   7.44473212E-08
   2.60000005E-02   7.60134995E-08
   2.60499995E-02   7.75708244E-08
   2.61000004E-02   7.91179247E-08
   2.61499994E-02   8.06533649E-08
   2.62000002E-02   8.21757169E-08
   2.62499992E-02   8.36834957E-08
   2.63000000E-02   8.51752020E-08
   2.63500009E-02   8.66493011E-08
   2.63999999E-02   8.81042297E-08
   2.64500007E-02   8.95384034E-08
   2.64999997E-02   9.09502091E-08
   2.65500005E-02   9.23379986E-08
   2.65999995E-02   9.37001090E-08
   2.66500004E-02   9.50348635E-08
   2.66999993E-02   9.63405142E-08
   2.67500002E-02   9.76153487E-08
   2.67999992E-02   9.88575906E-08
   2.68500000E-02   1.00065449E-07
   2.69000009E-02   1.01237120E-07
   2.69499999E-02   1.02370777E-07
   2.70000007E-02   1.03464565E-07
   2.70499997E-02   1.04516602E-07
   2.71000005E-02   1.05525004E-07
   2.71499995E-02   1.06487867E-07
   2.72000004E-02   1.07403267E-07
   2.72499993E-02   1.08269262E-07
   2.73000002E-02   1.09083892E-07
   2.73499992E-02   1.09845203E-07
   2.74000000E-02   1.10551191E-07
   2.74500009E-02   1.11199874E-07
   2.74999999E-02   1.11789241E-07
   2.75500007E-02   1.12317274E-07
   2.75999997E-02   1.12781962E-07
   2.76500005E-02   1.13181272E-07
   2.76999995E-02   1.13513174E-07
   2.77500004E-02   1.13775620E-07
   2.77999993E-02   1.13966564E-07
   2.78500002E-02   1.14083974E-07
   2.78999992E-02   1.14125797E-07
   2.79500000E-02   1.14090000E-07
   2.80000009E-02   1.13974536E-07
   2.80499998E-02   1.13777361E-07
   2.81000007E-02   1.13496455E-07
   2.81499997E-02   1.13129794E-07
   2.82000005E-02   1.12675359E-07
   2.82499995E-02   1.12131154E-07
   2.83000004E-02   1.11495183E-07
   2.83499993E-02   1.10765455E-07
   2.84000002E-02   1.09940032E-07
   2.84499992E-02   1.09016959E-07
   2.85000000E-02   1.07994303E-07
   2.85500009E-02   1.06870161E-07
   2.85999998E-02   1.05642656E-07
   2.86500007E-02   1.04309933E-07
   2.86999997E-02   1.02870153E-07
   2.87500005E-02   1.01321525E-07
   2.87999995E-02   9.96622660E-08
   2.88500004E-02   9.78906485E-08
   2.88999993E-02   9.60049604E-08
   2.89500002E-02   9.40035250E-08
   2.89999992E-02   9.18847221E-08
   2.90500000E-02   8.96469530E-08
   2.91000009E-02   8.72886687E-08
   2.91499998E-02   8.48083630E-08
   2.92000007E-02   8.22045862E-08
   2.92499997E-02   7.94759316E-08
   2.93000005E-02   7.66210277E-08
   2.93499995E-02   7.36385743E-08
   2.94000003E-02   7.05273138E-08
   2.94499993E-02   6.72860594E-08
   2.95000002E-02   6.39136744E-08
   2.95499992E-02   6.04090786E-08
   2.96000000E-02   5.67712597E-08
   2.96500009E-02   5.29992796E-08
   2.96999998E-02   4.90922538E-08
   2.97500007E-02   4.50493758E-08
   2.97999997E-02   4.08699030E-08
   2.98500005E-02   3.65531783E-08
   2.98999995E-02   3.20986082E-08
   2.99500003E-02   2.75056848E-08
   2.99999993E-02   2.27739836E-08
   3.00500002E-02   1.79031563E-08
   3.00999992E-02   1.28929418E-08
   3.01500000E-02   7.74316256E-09
   3.02000009E-02   2.45373433E-09
   3.02499998E-02  -2.97533820E-09
   3.03000007E-02  -8.54395843E-09
   3.03499997E-02  -1.42519303E-08
   3.04000005E-02  -2.00989732E-08
   3.04499995E-02  -2.60846971E-08
   3.05000003E-02  -3.22086109E-08
   3.05499993E-02  -3.84701302E-08
   3.06000002E-02  -4.48685533E-08
   3.06499992E-02  -5.14030774E-08
   3.07000000E-02  -5.80727892E-08
   3.07500008E-02  -6.48766800E-08
   3.07999998E-02  -7.18136164E-08
   3.08500007E-02  -7.88823513E-08
   3.08999997E-02  -8.60815277E-08
   3.09500005E-02  -9.34096533E-08
   3.09999995E-02  -1.00865144E-07
   3.10500003E-02  -1.08446294E-07
   3.10999993E-02  -1.16151249E-07
   3.11500002E-02  -1.23978054E-07
   3.11999992E-02  -1.31924622E-07
   3.12500000E-02  -1.39988771E-07
   3.13000008E-02  -1.48168127E-07
   3.13500017E-02  -1.56460217E-07
   3.13999988E-02  -1.64862499E-07
   3.14499997E-02  -1.73372200E-07
   3.15000005E-02  -1.81986479E-07
   3.15500014E-02  -1.90702352E-07
   3.15999985E-02  -1.99516677E-07
   3.16499993E-02  -2.08426243E-07
   3.17000002E-02  -2.17427640E-07
   3.17500010E-02  -2.26517301E-07
   3.18000019E-02  -2.35691587E-07
   3.18499990E-02  -2.44946705E-07
   3.18999998E-02  -2.54278717E-07
   3.19500007E-02  -2.63683518E-07
   3.20000015E-02  -2.73156928E-07
   3.20499986E-02  -2.82694600E-07
   3.20999995E-02  -2.92292043E-07
   3.21500003E-02  -3.01944596E-07
   3.22000012E-02  -3.11647540E-07
   3.22499983E-02  -3.21395930E-07
   3.22999991E-02  -3.31184708E-07
   3.23500000E-02  -3.41008700E-07
   3.24000008E-02  -3.50862621E-07
   3.24500017E-02  -3.60740955E-07
   3.24999988E-02  -3.70638190E-07
   3.25499997E-02  -3.80548528E-07
   3.26000005E-02  -3.90466170E-07
   3.26500013E-02  -4.00385062E-07
   3.26999985E-02  -4.10299066E-07
   3.27499993E-02  -4.20201985E-07
   3.28000002E-02  -4.30087397E-07
   3.28500010E-02  -4.39948707E-07
   3.29000019E-02  -4.49779350E-07
   3.29499990E-02  -4.59572561E-07
   3.29999998E-02  -4.69321378E-07
   3.30500007E-02  -4.79018809E-07
   3.31000015E-02  -4.88657690E-07
   3.31499986E-02  -4.98230861E-07
   3.31999995E-02  -5.07730817E-07
   3.32500003E-02  -5.17150113E-07
   3.33000012E-02  -5.26481131E-07
   3.33499983E-02  -5.35716197E-07
   3.33999991E-02  -5.44847410E-07
   3.34500000E-02  -5.53866926E-07
   3.35000008E-02  -5.62766672E-07
   3.35500017E-02  -5.71538521E-07
   3.35999988E-02  -5.80174230E-07
   3.36499996E-02  -5.88665557E-07
   3.37000005E-02  -5.97004032E-07
   3.37500013E-02  -6.05181185E-07
   3.37999985E-02  -6.13188490E-07
   3.38499993E-02  -6.21017307E-07
   3.39000002E-02  -6.28658825E-07
   3.39500010E-02  -6.36104289E-07
   3.40000018E-02  -6.43344777E-07
   3.40499990E-02  -6.50371476E-07
   3.40999998E-02  -6.57175349E-07
   3.41500007E-02  -6.63747358E-07
   3.42000015E-02  -6.70078407E-07
   3.42499986E-02  -6.76159402E-07
   3.42999995E-02  -6.81981192E-07
   3.43500003E-02  -6.87534566E-07
   3.44000012E-02  -6.92810204E-07
   3.44499983E-02  -6.97798896E-07
   3.44999991E-02  -7.02491377E-07
   3.45500000E-02  -7.06878382E-07
   3.46000008E-02  -7.10950587E-07
   3.46500017E-02  -7.14698729E-07
   3.46999988E-02  -7.18113370E-07
   3.47499996E-02  -7.21185359E-07
   3.48000005E-02  -7.23905373E-07
   3.48500013E-02  -7.26264091E-07
   3.48999985E-02  -7.28252360E-07
   3.49499993E-02  -7.29860915E-07
   3.50000001E-02  -7.31080547E-07
   3.50500010E-02  -7.31902219E-07
   3.51000018E-02  -7.32316835E-07
   3.51499990E-02  -7.32315300E-07
   3.51999998E-02  -7.31888690E-07
   3.52500007E-02  -7.31028194E-07
   3.53000015E-02  -7.29725002E-07
   3.53499986E-02  -7.27970303E-07
   3.53999995E-02  -7.25755513E-07
   3.54500003E-02  -7.23072162E-07
   3.55000012E-02  -7.19911725E-07
   3.55499983E-02  -7.16265959E-07
   3.55999991E-02  -7.12126621E-07
   3.56500000E-02  -7.07485640E-07
   3.57000008E-02  -7.02335115E-07
   3.57500017E-02  -6.96667200E-07
   3.57999988E-02  -6.90474280E-07
   3.58499996E-02  -6.83748908E-07
   3.59000005E-02  -6.76483694E-07
   3.59500013E-02  -6.68671419E-07
   3.59999985E-02  -6.60305204E-07
   3.60499993E-02  -6.51378230E-07
   3.61000001E-02  -6.41883901E-07
   3.61500010E-02  -6.31815794E-07
   3.62000018E-02  -6.21167601E-07
   3.62499990E-02  -6.09933522E-07
   3.62999998E-02  -5.98107647E-07
   3.63500006E-02  -5.85684631E-07
   3.64000015E-02  -5.72659076E-07
   3.64499986E-02  -5.59026034E-07
   3.64999995E-02  -5.44780619E-07
   3.65500003E-02  -5.29918339E-07
   3.66000012E-02  -5.14434987E-07
   3.66499983E-02  -4.98326585E-07
   3.66999991E-02  -4.81589382E-07
   3.67500000E-02  -4.64220022E-07
   3.68000008E-02  -4.46215381E-07
   3.68500017E-02  -4.27572701E-07
   3.68999988E-02  -4.08289480E-07
   3.69499996E-02  -3.88363560E-07
   3.70000005E-02  -3.67793120E-07
   3.70500013E-02  -3.46576655E-07
   3.70999984E-02  -3.24713028E-07
   3.71499993E-02  -3.02201443E-07
   3.72000001E-02  -2.79041444E-07
   3.72500010E-02  -2.55232976E-07
   3.73000018E-02  -2.30776322E-07
   3.73499990E-02  -2.05672137E-07
   3.73999998E-02  -1.79921486E-07
   3.74500006E-02  -1.53525818E-07
   3.75000015E-02  -1.26486967E-07
   3.75499986E-02  -9.88071704E-08
   3.75999995E-02  -7.04890866E-08
   3.76500003E-02  -4.15357704E-08
   3.77000012E-02  -1.19507195E-08
   3.77499983E-02   1.82621651E-08
   3.77999991E-02   4.90985315E-08
   3.78500000E-02   8.05535976E-08
   3.79000008E-02   1.12622146E-07
   3.79500017E-02   1.45298543E-07
   3.79999988E-02   1.78576613E-07
   3.80499996E-02   2.12449791E-07
   3.81000005E-02   2.46911043E-07
   3.81500013E-02   2.81952879E-07
   3.81999984E-02   3.17567327E-07
   3.82499993E-02   3.53745918E-07
   3.83000001E-02   3.90479784E-07
   3.83500010E-02   4.27759488E-07
   3.84000018E-02   4.65575084E-07
   3.84499989E-02   5.03916283E-07
   3.84999998E-02   5.42772170E-07
   3.85500006E-02   5.82131406E-07
   3.86000015E-02   6.21982167E-07
   3.86499986E-02   6.62312118E-07
   3.86999995E-02   7.03108356E-07
   3.87500003E-02   7.44357578E-07
   3.88000011E-02   7.86045916E-07
   3.88499983E-02   8.28159102E-07
   3.88999991E-02   8.70682186E-07
   3.89500000E-02   9.13599820E-07
   3.90000008E-02   9.56896315E-07
   3.90500017E-02   1.00055513E-06
   3.90999988E-02   1.04455944E-06
   3.91499996E-02   1.08889196E-06
   3.92000005E-02   1.13353474E-06
   3.92500013E-02   1.17846946E-06
   3.92999984E-02   1.22367726E-06
   3.93499993E-02   1.26913869E-06
   3.94000001E-02   1.31483398E-06
   3.94500010E-02   1.36074289E-06
   3.95000018E-02   1.40684438E-06
   3.95499989E-02   1.45311731E-06
   3.95999998E-02   1.49953974E-06
   3.96500006E-02   1.54608949E-06
   3.97000015E-02   1.59274373E-06
   3.97499986E-02   1.63947925E-06
   3.97999994E-02   1.68627230E-06
   3.98500003E-02   1.73309888E-06
   3.99000011E-02   1.77993445E-06
   3.99499983E-02   1.82675376E-06
   3.99999991E-02   1.87353135E-06
   4.00500000E-02   1.92024140E-06
   4.01000008E-02   1.96685755E-06
   4.01500016E-02   2.01335274E-06
   4.01999988E-02   2.05969991E-06
   4.02499996E-02   2.10587154E-06
   4.03000005E-02   2.15183945E-06
   4.03500013E-02   2.19757544E-06
   4.03999984E-02   2.24305086E-06
   4.04499993E-02   2.28823637E-06
   4.05000001E-02   2.33310220E-06
   4.05500010E-02   2.37761901E-06
   4.06000018E-02   2.42175634E-06
   4.06499989E-02   2.46548370E-06
   4.06999998E-02   2.50877019E-06
   4.07500006E-02   2.55158466E-06
   4.08000015E-02   2.59389594E-06
   4.08499986E-02   2.63567199E-06
   4.08999994E-02   2.67688074E-06
   4.09500003E-02   2.71748991E-06
   4.10000011E-02   2.75746720E-06
   4.10499983E-02   2.79677988E-06
   4.10999991E-02   2.83539498E-06
   4.11499999E-02   2.87327907E-06
   4.12000008E-02   2.91039919E-06
   4.12500016E-02   2.94672145E-06
   4.12999988E-02   2.98221221E-06
   4.13499996E-02   3.01683804E-06
   4.14000005E-02   3.05056483E-06
   4.14500013E-02   3.08335871E-06
   4.14999984E-02   3.11518488E-06
   4.15499993E-02   3.14600948E-06
   4.16000001E-02   3.17579838E-06
   4.16500010E-02   3.20451659E-06
   4.17000018E-02   3.23213044E-06
   4.17499989E-02   3.25860560E-06
   4.17999998E-02   3.28390729E-06
   4.18500006E-02   3.30800140E-06
   4.19000015E-02   3.33085336E-06
   4.19499986E-02   3.35242930E-06
   4.19999994E-02   3.37269512E-06
   4.20500003E-02   3.39161647E-06
   4.21000011E-02   3.40915972E-06
   4.21499982E-02   3.42529120E-06
   4.21999991E-02   3.43997726E-06
   4.22499999E-02   3.45318426E-06
   4.23000008E-02   3.46487923E-06
   4.23500016E-02   3.47502919E-06
   4.23999988E-02   3.48360118E-06
   4.24499996E-02   3.49056336E-06
   4.25000004E-02   3.49588299E-06
   4.25500013E-02   3.49952870E-06
   4.25999984E-02   3.50146888E-06
   4.26499993E-02   3.50167215E-06
   4.27000001E-02   3.50010782E-06
   4.27500010E-02   3.49674610E-06
   4.28000018E-02   3.49155653E-06