   0.00000000       0.00000000    
   4.99999987E-05   0.00000000    
   9.99999975E-05   0.00000000    
   1.50000007E-04   0.00000000    
   1.99999995E-04  -9.33325373E-26
   2.50000012E-04  -9.60526899E-25
   3.00000014E-04  -5.34035640E-24
   3.49999988E-04  -2.13765938E-23
   3.99999990E-04  -6.91119398E-23
   4.49999992E-04  -1.91825766E-22
   5.00000024E-04  -4.74396361E-22
   5.49999997E-04  -1.07139196E-21
   6.00000028E-04  -2.24816503E-21
   6.50000002E-04  -4.43886362E-21
   6.99999975E-04  -8.32589437E-21
   7.50000007E-04  -1.49461278E-20
   7.99999980E-04  -2.58299053E-20
   8.50000011E-04  -4.31795970E-20
   8.99999985E-04  -7.00953756E-20
   9.50000016E-04  -1.10856755E-19
   1.00000005E-03  -1.71268922E-19
   1.04999996E-03  -2.59084962E-19
   1.09999999E-03  -3.84514391E-19
   1.15000003E-03  -5.60829799E-19
   1.20000006E-03  -8.05086670E-19
   1.24999997E-03  -1.13896887E-18
   1.30000000E-03  -1.58977631E-18
   1.35000004E-03  -2.19156788E-18
   1.39999995E-03  -2.98648080E-18
   1.44999998E-03  -4.02624125E-18
   1.50000001E-03  -5.37389052E-18
   1.55000004E-03  -7.10574202E-18
   1.59999996E-03  -9.31359461E-18
   1.64999999E-03  -1.21072185E-17
   1.70000002E-03  -1.56171352E-17
   1.75000005E-03  -1.99977398E-17
   1.79999997E-03  -2.54307795E-17
   1.85000000E-03  -3.21291409E-17
   1.90000003E-03  -4.03411154E-17
   1.94999995E-03  -5.03550830E-17
   2.00000009E-03  -6.25046126E-17
   2.05000001E-03  -7.71740916E-17
   2.09999993E-03  -9.48048641E-17
   2.15000007E-03  -1.15901953E-16
   2.19999999E-03  -1.41041230E-16
   2.24999990E-03  -1.70877383E-16
   2.30000005E-03  -2.06152387E-16
   2.34999997E-03  -2.47704780E-16
   2.40000011E-03  -2.96479690E-16
   2.45000003E-03  -3.53539191E-16
   2.49999994E-03  -4.20073973E-16
   2.55000009E-03  -4.97415651E-16
   2.60000001E-03  -5.87049737E-16
   2.64999992E-03  -6.90629743E-16
   2.70000007E-03  -8.09991985E-16
   2.74999999E-03  -9.47171406E-16
   2.79999990E-03  -1.10441873E-15
   2.85000005E-03  -1.28421810E-15
   2.89999996E-03  -1.48930584E-15
   2.95000011E-03  -1.72269053E-15
   3.00000003E-03  -1.98767420E-15
   3.04999994E-03  -2.28787517E-15
   3.10000009E-03  -2.62725099E-15
   3.15000000E-03  -3.01012216E-15
   3.19999992E-03  -3.44119777E-15
   3.25000007E-03  -3.92560469E-15
   3.29999998E-03  -4.46891745E-15
   3.34999990E-03  -5.07718155E-15
   3.40000005E-03  -5.75694836E-15
   3.44999996E-03  -6.51530924E-15
   3.50000011E-03  -7.35992688E-15
   3.55000002E-03  -8.29906619E-15
   3.59999994E-03  -9.34163923E-15
   3.65000009E-03  -1.04972387E-14
   3.70000000E-03  -1.17761771E-14
   3.74999992E-03  -1.31895286E-14
   3.80000006E-03  -1.47491662E-14
   3.84999998E-03  -1.64678045E-14
   3.89999989E-03  -1.83590597E-14
   3.94999981E-03  -2.04374803E-14
   4.00000019E-03  -2.27185993E-14
   4.05000011E-03  -2.52189796E-14
   4.10000002E-03  -2.79562648E-14
   4.14999994E-03  -3.09492388E-14
   4.19999985E-03  -3.42178746E-14
   4.25000023E-03  -3.77833818E-14
   4.30000015E-03  -4.16682578E-14
   4.35000006E-03  -4.58963684E-14
   4.39999998E-03  -5.04929926E-14
   4.44999989E-03  -5.54848661E-14
   4.49999981E-03  -6.09002459E-14
   4.55000019E-03  -6.67689780E-14
   4.60000010E-03  -7.31225722E-14
   4.65000002E-03  -7.99942252E-14
   4.69999993E-03  -8.74189366E-14
   4.74999985E-03  -9.54335555E-14
   4.80000023E-03  -1.04076815E-13
   4.85000014E-03  -1.13389407E-13
   4.90000006E-03  -1.23414029E-13
   4.94999997E-03  -1.34195511E-13
   4.99999989E-03  -1.45780862E-13
   5.04999980E-03  -1.58219249E-13
   5.10000018E-03  -1.71562200E-13
   5.15000010E-03  -1.85863572E-13
   5.20000001E-03  -2.01179676E-13
   5.24999993E-03  -2.17569262E-13
   5.29999984E-03  -2.35093629E-13
   5.35000023E-03  -2.53816689E-13
   5.40000014E-03  -2.73805094E-13
   5.45000006E-03  -2.95128125E-13
   5.49999997E-03  -3.17857963E-13
   5.54999989E-03  -3.42069607E-13
   5.59999980E-03  -3.67840903E-13
   5.65000018E-03  -3.95252651E-13
   5.70000010E-03  -4.24388768E-13
   5.75000001E-03  -4.55336181E-13
   5.79999993E-03  -4.88184905E-13
   5.84999984E-03  -5.23028235E-13
   5.90000022E-03  -5.59962450E-13
   5.95000014E-03  -5.99087078E-13
   6.00000005E-03  -6.40505173E-13
   6.04999997E-03  -6.84322824E-13
   6.09999988E-03  -7.30649590E-13
   6.14999980E-03  -7.79598445E-13
   6.20000018E-03  -8.31285561E-13
   6.25000009E-03  -8.85830634E-13
   6.30000001E-03  -9.43356721E-13
   6.34999992E-03  -1.00399029E-12
   6.39999984E-03  -1.06786119E-12
   6.45000022E-03  -1.13510265E-12
   6.50000013E-03  -1.20585117E-12
   6.55000005E-03  -1.28024685E-12
   6.59999996E-03  -1.35843322E-12
   6.64999988E-03  -1.44055655E-12
   6.69999979E-03  -1.52676699E-12
   6.75000018E-03  -1.61721797E-12
   6.80000009E-03  -1.71206571E-12
   6.85000001E-03  -1.81146949E-12
   6.89999992E-03  -1.91559182E-12
   6.94999984E-03  -2.02459837E-12
   7.00000022E-03  -2.13865709E-12
   7.05000013E-03  -2.25793884E-12
   7.10000005E-03  -2.38261797E-12
   7.14999996E-03  -2.51287012E-12
   7.19999988E-03  -2.64887418E-12
   7.24999979E-03  -2.79081142E-12
   7.30000017E-03  -2.93886421E-12
   7.35000009E-03  -3.09321796E-12
   7.40000000E-03  -3.25405978E-12
   7.44999992E-03  -3.42157812E-12
   7.49999983E-03  -3.59596250E-12
   7.55000021E-03  -3.77740460E-12
   7.60000013E-03  -3.96609655E-12
   7.65000004E-03  -4.16223132E-12
   7.69999996E-03  -4.36600192E-12
   7.74999987E-03  -4.57760132E-12
   7.79999979E-03  -4.79722338E-12
   7.84999970E-03  -5.02506196E-12
   7.89999962E-03  -5.26131005E-12
   7.95000046E-03  -5.50615890E-12
   8.00000038E-03  -5.75979932E-12
   8.05000030E-03  -6.02241911E-12
   8.10000021E-03  -6.29420517E-12
   8.15000013E-03  -6.57534227E-12
   8.20000004E-03  -6.86601123E-12
   8.24999996E-03  -7.16639118E-12
   8.29999987E-03  -7.47665645E-12
   8.34999979E-03  -7.79697834E-12
   8.39999970E-03  -8.12752383E-12
   8.44999962E-03  -8.46845337E-12
   8.50000046E-03  -8.81992136E-12
   8.55000038E-03  -9.18207958E-12
   8.60000029E-03  -9.55507028E-12
   8.65000021E-03  -9.93903050E-12
   8.70000012E-03  -1.03340886E-11
   8.75000004E-03  -1.07403635E-11
   8.79999995E-03  -1.11579669E-11
   8.84999987E-03  -1.15870039E-11
   8.89999978E-03  -1.20275638E-11
   8.94999970E-03  -1.24797273E-11
   8.99999961E-03  -1.29435646E-11
   9.05000046E-03  -1.34191330E-11
   9.10000037E-03  -1.39064775E-11
   9.15000029E-03  -1.44056321E-11
   9.20000020E-03  -1.49166113E-11
   9.25000012E-03  -1.54394188E-11
   9.30000003E-03  -1.59740381E-11
   9.34999995E-03  -1.65204395E-11
   9.39999986E-03  -1.70785781E-11
   9.44999978E-03  -1.76483862E-11
   9.49999969E-03  -1.82297788E-11
   9.54999961E-03  -1.88226483E-11
   9.60000046E-03  -1.94268698E-11
   9.65000037E-03  -2.00422994E-11
   9.70000029E-03  -2.06687688E-11
   9.75000020E-03  -2.13060802E-11
   9.80000012E-03  -2.19540167E-11
   9.85000003E-03  -2.26123373E-11
   9.89999995E-03  -2.32807731E-11
   9.94999986E-03  -2.39590240E-11
   9.99999978E-03  -2.46467621E-11
   1.00499997E-02  -2.53436404E-11
   1.00999996E-02  -2.60492756E-11
   1.01500005E-02  -2.67632461E-11
   1.02000004E-02  -2.74851010E-11
   1.02500003E-02  -2.82143597E-11
   1.03000002E-02  -2.89505087E-11
   1.03500001E-02  -2.96929981E-11
   1.04000000E-02  -3.04412398E-11
   1.04499999E-02  -3.11946059E-11
   1.04999999E-02  -3.19524303E-11
   1.05499998E-02  -3.27140155E-11
   1.05999997E-02  -3.34786088E-11
   1.06499996E-02  -3.42454329E-11
   1.07000005E-02  -3.50136517E-11
   1.07500004E-02  -3.57824013E-11
   1.08000003E-02  -3.65507624E-11
   1.08500002E-02  -3.73177635E-11
   1.09000001E-02  -3.80823983E-11
   1.09500000E-02  -3.88436019E-11
   1.09999999E-02  -3.96002744E-11
   1.10499999E-02  -4.03512536E-11
   1.10999998E-02  -4.10953285E-11
   1.11499997E-02  -4.18312364E-11
   1.11999996E-02  -4.25576588E-11
   1.12500004E-02  -4.32732253E-11
   1.13000004E-02  -4.39765203E-11
   1.13500003E-02  -4.46660486E-11
   1.14000002E-02  -4.53402732E-11
   1.14500001E-02  -4.59976016E-11
   1.15000000E-02  -4.66363753E-11
   1.15499999E-02  -4.72548667E-11
   1.15999999E-02  -4.78513028E-11
   1.16499998E-02  -4.84238517E-11
   1.16999997E-02  -4.89706053E-11
   1.17499996E-02  -4.94896034E-11
   1.18000004E-02  -4.99788093E-11
   1.18500004E-02  -5.04361310E-11
   1.19000003E-02  -5.08594104E-11
   1.19500002E-02  -5.12464168E-11
   1.20000001E-02  -5.15948638E-11
   1.20500000E-02  -5.19023748E-11
   1.20999999E-02  -5.21665280E-11
   1.21499998E-02  -5.23848395E-11
   1.21999998E-02  -5.25547383E-11
   1.22499997E-02  -5.26735808E-11
   1.22999996E-02  -5.27386711E-11
   1.23500004E-02  -5.27472371E-11
   1.24000004E-02  -5.26964271E-11
   1.24500003E-02  -5.25833266E-11
   1.25000002E-02  -5.24049450E-11
   1.25500001E-02  -5.21582361E-11
   1.26000000E-02  -5.18400843E-11
   1.26499999E-02  -5.14472909E-11
   1.26999998E-02  -5.09765737E-11
   1.27499998E-02  -5.04246020E-11
   1.27999997E-02  -4.97879654E-11
   1.28499996E-02  -4.90632084E-11
   1.29000004E-02  -4.82467920E-11
   1.29500004E-02  -4.73350664E-11
   1.30000003E-02  -4.63243541E-11
   1.30500002E-02  -4.52109253E-11
   1.31000001E-02  -4.39909394E-11
   1.31500000E-02  -4.26605314E-11
   1.31999999E-02  -4.12157808E-11
   1.32499998E-02  -3.96526735E-11
   1.32999998E-02  -3.79671017E-11
   1.33499997E-02  -3.61549471E-11
   1.33999996E-02  -3.42120290E-11
   1.34500004E-02  -3.21340836E-11
   1.35000004E-02  -2.99168051E-11
   1.35500003E-02  -2.75558135E-11
   1.36000002E-02  -2.50466852E-11
   1.36500001E-02  -2.23849741E-11
   1.37000000E-02  -1.95661612E-11
   1.37499999E-02  -1.65856513E-11
   1.37999998E-02  -1.34388247E-11
   1.38499998E-02  -1.01210082E-11
   1.38999997E-02  -6.62750410E-12
   1.39499996E-02  -2.95360459E-12
   1.40000004E-02   9.05489659E-13
   1.40500003E-02   4.95458969E-12
   1.41000003E-02   9.19855945E-12
   1.41500002E-02   1.36422687E-11
   1.42000001E-02   1.82905774E-11
   1.42500000E-02   2.31483964E-11
   1.42999999E-02   2.82206966E-11
   1.43499998E-02   3.35124636E-11
   1.43999998E-02   3.90286171E-11
   1.44499997E-02   4.47741323E-11
   1.44999996E-02   5.07540260E-11
   1.45500004E-02   5.69732005E-11
   1.46000003E-02   6.34366240E-11
   1.46500003E-02   7.01493100E-11
   1.47000002E-02   7.71161746E-11
   1.47500001E-02   8.43421721E-11
   1.48000000E-02   9.18322224E-11
   1.48499999E-02   9.95911825E-11
   1.48999998E-02   1.07623903E-10
   1.49499997E-02   1.15935220E-10
   1.49999997E-02   1.24529914E-10
   1.50499996E-02   1.33412698E-10
   1.51000004E-02   1.42588247E-10
   1.51500003E-02   1.52061169E-10
   1.52000003E-02   1.61836003E-10
   1.52500002E-02   1.71917286E-10
   1.53000001E-02   1.82309376E-10
   1.53500000E-02   1.93016603E-10
   1.53999999E-02   2.04043227E-10
   1.54499998E-02   2.15393398E-10
   1.54999997E-02   2.27071154E-10
   1.55499997E-02   2.39080394E-10
   1.55999996E-02   2.51424881E-10
   1.56500004E-02   2.64108457E-10
   1.56999994E-02   2.77134621E-10
   1.57500003E-02   2.90506841E-10
   1.57999992E-02   3.04228420E-10
   1.58500001E-02   3.18302412E-10
   1.59000009E-02   3.32731842E-10
   1.59499999E-02   3.47519541E-10
   1.60000008E-02   3.62668229E-10
   1.60499997E-02   3.78180265E-10
   1.61000006E-02   3.94057953E-10
   1.61499996E-02   4.10303375E-10
   1.62000004E-02   4.26918473E-10
   1.62499994E-02   4.43904857E-10
   1.63000003E-02   4.61263944E-10
   1.63499992E-02   4.78997009E-10
   1.64000001E-02   4.97104968E-10
   1.64500009E-02   5.15588683E-10
   1.64999999E-02   5.34448485E-10
   1.65500008E-02   5.53684709E-10
   1.65999997E-02   5.73297188E-10
   1.66500006E-02   5.93285643E-10
   1.66999996E-02   6.13649465E-10
   1.67500004E-02   6.34387765E-10
   1.67999994E-02   6.55499266E-10
   1.68500002E-02   6.76982415E-10
   1.68999992E-02   6.98835323E-10
   1.69500001E-02   7.21055882E-10
   1.70000009E-02   7.43641482E-10
   1.70499999E-02   7.66589181E-10
   1.71000008E-02   7.89895815E-10
   1.71499997E-02   8.13557610E-10
   1.72000006E-02   8.37570624E-10
   1.72499996E-02   8.61930527E-10
   1.73000004E-02   8.86632490E-10
   1.73499994E-02   9.11671350E-10
   1.74000002E-02   9.37041333E-10
   1.74499992E-02   9.62736446E-10
   1.75000001E-02   9.88750415E-10
   1.75500009E-02   1.01507613E-09
   1.75999999E-02   1.04170639E-09
   1.76500008E-02   1.06863307E-09
   1.76999997E-02   1.09584830E-09
   1.77500006E-02   1.12334320E-09
   1.77999996E-02   1.15110832E-09
   1.78500004E-02   1.17913401E-09
   1.78999994E-02   1.20741006E-09
   1.79500002E-02   1.23592581E-09
   1.79999992E-02   1.26466992E-09
   1.80500001E-02   1.29363043E-09
   1.81000009E-02   1.32279521E-09
   1.81499999E-02   1.35215139E-09
   1.82000007E-02   1.38168554E-09
   1.82499997E-02   1.41138368E-09
   1.83000006E-02   1.44123147E-09
   1.83499996E-02   1.47121371E-09
   1.84000004E-02   1.50131474E-09
   1.84499994E-02   1.53151825E-09
   1.85000002E-02   1.56180746E-09
   1.85499992E-02   1.59216496E-09
   1.86000001E-02   1.62257285E-09
   1.86500009E-02   1.65301228E-09
   1.86999999E-02   1.68346426E-09
   1.87500007E-02   1.71390901E-09
   1.87999997E-02   1.74432602E-09
   1.88500006E-02   1.77469417E-09
   1.88999996E-02   1.80499160E-09
   1.89500004E-02   1.83519633E-09
   1.89999994E-02   1.86528526E-09
   1.90500002E-02   1.89523508E-09
   1.90999992E-02   1.92502125E-09
   1.91500001E-02   1.95461913E-09
   1.92000009E-02   1.98400318E-09
   1.92499999E-02   2.01314743E-09
   1.93000007E-02   2.04202477E-09
   1.93499997E-02   2.07060835E-09
   1.94000006E-02   2.09886974E-09
   1.94499996E-02   2.12678031E-09
   1.95000004E-02   2.15431073E-09
   1.95499994E-02   2.18143126E-09
   1.96000002E-02   2.20811103E-09
   1.96499992E-02   2.23431895E-09
   1.97000001E-02   2.26002328E-09
   1.97500009E-02   2.28519115E-09
   1.97999999E-02   2.30979014E-09
   1.98500007E-02   2.33378605E-09
   1.98999997E-02   2.35714448E-09
   1.99500006E-02   2.37983100E-09
   1.99999996E-02   2.40180964E-09
   2.00500004E-02   2.42304443E-09
   2.00999994E-02   2.44349874E-09
   2.01500002E-02   2.46313503E-09
   2.01999992E-02   2.48191578E-09
   2.02500001E-02   2.49980237E-09
   2.03000009E-02   2.51675569E-09
   2.03499999E-02   2.53273624E-09
   2.04000007E-02   2.54770427E-09
   2.04499997E-02   2.56161892E-09
   2.05000006E-02   2.57443911E-09
   2.05499995E-02   2.58612332E-09
   2.06000004E-02   2.59662958E-09
   2.06499994E-02   2.60591526E-09
   2.07000002E-02   2.61393729E-09
   2.07499992E-02   2.62065214E-09
   2.08000001E-02   2.62601629E-09
   2.08500009E-02   2.62998534E-09
   2.08999999E-02   2.63251443E-09
   2.09500007E-02   2.63355870E-09
   2.09999997E-02   2.63307265E-09
   2.10500006E-02   2.63101096E-09
   2.10999995E-02   2.62732724E-09
   2.11500004E-02   2.62197530E-09
   2.11999994E-02   2.61490851E-09
   2.12500002E-02   2.60608024E-09
   2.12999992E-02   2.59544297E-09
   2.13500001E-02   2.58294963E-09
   2.14000009E-02   2.56855293E-09
   2.14499999E-02   2.55220534E-09
   2.15000007E-02   2.53385890E-09
   2.15499997E-02   2.51346588E-09
   2.16000006E-02   2.49097809E-09
   2.16499995E-02   2.46634801E-09
   2.17000004E-02   2.43952769E-09
   2.17499994E-02   2.41046894E-09
   2.18000002E-02   2.37912379E-09
   2.18499992E-02   2.34544428E-09
   2.19000001E-02   2.30938335E-09
   2.19500009E-02   2.27089281E-09
   2.19999999E-02   2.22992513E-09
   2.20500007E-02   2.18643348E-09
   2.20999997E-02   2.14037055E-09
   2.21500006E-02   2.09168949E-09
   2.21999995E-02   2.04034434E-09
   2.22500004E-02   1.98628891E-09
   2.22999994E-02   1.92947724E-09
   2.23500002E-02   1.86986426E-09
   2.23999992E-02   1.80740500E-09
   2.24500000E-02   1.74205528E-09
   2.25000009E-02   1.67377101E-09
   2.25499999E-02   1.60250946E-09
   2.26000007E-02   1.52822766E-09
   2.26499997E-02   1.45088341E-09
   2.27000006E-02   1.37043565E-09
   2.27499995E-02   1.28684363E-09
   2.28000004E-02   1.20006782E-09
   2.28499994E-02   1.11006915E-09
   2.29000002E-02   1.01680975E-09
   2.29499992E-02   9.20252263E-10
   2.30000000E-02   8.20360446E-10
   2.30500009E-02   7.17099102E-10
   2.30999999E-02   6.10434314E-10
   2.31500007E-02   5.00332720E-10
   2.31999997E-02   3.86762289E-10
   2.32500006E-02   2.69692435E-10
   2.32999995E-02   1.49093612E-10
   2.33500004E-02   2.49375243E-11
   2.33999994E-02  -1.02802683E-10
   2.34500002E-02  -2.34152614E-10
   2.34999992E-02  -3.69136471E-10
   2.35500000E-02  -5.07776932E-10
   2.36000009E-02  -6.50095144E-10
   2.36499999E-02  -7.96110677E-10
   2.37000007E-02  -9.45841627E-10
   2.37499997E-02  -1.09930409E-09
   2.38000005E-02  -1.25651300E-09
   2.38499995E-02  -1.41748102E-09
   2.39000004E-02  -1.58221936E-09
   2.39499994E-02  -1.75073711E-09
   2.40000002E-02  -1.92304150E-09
   2.40499992E-02  -2.09913753E-09
   2.41000000E-02  -2.27902852E-09
   2.41500009E-02  -2.46271648E-09
   2.41999999E-02  -2.65020006E-09
   2.42500007E-02  -2.84147617E-09
   2.42999997E-02  -3.03653969E-09
   2.43500005E-02  -3.23538329E-09
   2.43999995E-02  -3.43799722E-09
   2.44500004E-02  -3.64436947E-09
   2.44999994E-02  -3.85448518E-09
   2.45500002E-02  -4.06832790E-09
   2.45999992E-02  -4.28587832E-09
   2.46500000E-02  -4.50711379E-09
   2.47000009E-02  -4.73201034E-09
   2.47499999E-02  -4.96054042E-09
   2.48000007E-02  -5.19267473E-09
   2.48499997E-02  -5.42838086E-09
   2.49000005E-02  -5.66762326E-09
   2.49499995E-02  -5.91036375E-09
   2.50000004E-02  -6.15656104E-09
   2.50499994E-02  -6.40617115E-09
   2.51000002E-02  -6.65914834E-09
   2.51499992E-02  -6.91544333E-09
   2.52000000E-02  -7.17500281E-09
   2.52500009E-02  -7.43777084E-09
   2.52999999E-02  -7.70368924E-09
   2.53500007E-02  -7.97269717E-09
   2.53999997E-02  -8.24472757E-09
   2.54500005E-02  -8.51971471E-09
   2.54999995E-02  -8.79758488E-09
   2.55500004E-02  -9.07826436E-09
   2.55999994E-02  -9.36167588E-09
   2.56500002E-02  -9.64773861E-09
   2.56999992E-02  -9.93636817E-09
   2.57500000E-02  -1.02274749E-08
   2.58000009E-02  -1.05209690E-08
   2.58499999E-02  -1.08167564E-08
   2.59000007E-02  -1.11147376E-08
   2.59499997E-02  -1.14148122E-08
   2.60000005E-02  -1.17168755E-08
   2.60499995E-02  -1.20208181E-08
   2.61000004E-02  -1.23265300E-08
   2.61499994E-02  -1.26338939E-08
   2.62000002E-02  -1.29427908E-08
   2.62499992E-02  -1.32531000E-08
   2.63000000E-02  -1.35646960E-08
   2.63500009E-02  -1.38774476E-08
   2.63999999E-02  -1.41912233E-08
   2.64500007E-02  -1.45058863E-08
   2.64999997E-02  -1.48212962E-08
   2.65500005E-02  -1.51373083E-08
   2.65999995E-02  -1.54537751E-08
   2.66500004E-02  -1.57705475E-08
   2.66999993E-02  -1.60874709E-08
   2.67500002E-02  -1.64043872E-08
   2.67999992E-02  -1.67211347E-08
   2.68500000E-02  -1.70375500E-08
   2.69000009E-02  -1.73534609E-08
   2.69499999E-02  -1.76687003E-08
   2.70000007E-02  -1.79830906E-08
   2.70499997E-02  -1.82964559E-08
   2.71000005E-02  -1.86086098E-08
   2.71499995E-02  -1.89193692E-08
   2.72000004E-02  -1.92285441E-08
   2.72499993E-02  -1.95359444E-08
   2.73000002E-02  -1.98413712E-08
   2.73499992E-02  -2.01446291E-08
   2.74000000E-02  -2.04455155E-08
   2.74500009E-02  -2.07438227E-08
   2.74999999E-02  -2.10393463E-08
   2.75500007E-02  -2.13318749E-08
   2.75999997E-02  -2.16211919E-08
   2.76500005E-02  -2.19070806E-08
   2.76999995E-02  -2.21893242E-08
   2.77500004E-02  -2.24676953E-08
   2.77999993E-02  -2.27419701E-08
   2.78500002E-02  -2.30119195E-08
   2.78999992E-02  -2.32773125E-08
   2.79500000E-02  -2.35379165E-08
   2.80000009E-02  -2.37934934E-08
   2.80499998E-02  -2.40438069E-08
   2.81000007E-02  -2.42886120E-08
   2.81499997E-02  -2.45276706E-08
   2.82000005E-02  -2.47607339E-08
   2.82499995E-02  -2.49875551E-08
   2.83000004E-02  -2.52078802E-08
   2.83499993E-02  -2.54214623E-08
   2.84000002E-02  -2.56280455E-08
   2.84499992E-02  -2.58273740E-08
   2.85000000E-02  -2.60191939E-08
   2.85500009E-02  -2.62032422E-08
   2.85999998E-02  -2.63792597E-08
   2.86500007E-02  -2.65469851E-08
   2.86999997E-02  -2.67061555E-08
   2.87500005E-02  -2.68565081E-08
   2.87999995E-02  -2.69977747E-08
   2.88500004E-02  -2.71296923E-08
   2.88999993E-02  -2.72519944E-08
   2.89500002E-02  -2.73644112E-08
   2.89999992E-02  -2.74666725E-08
   2.90500000E-02  -2.75585172E-08
   2.91000009E-02  -2.76396719E-08
   2.91499998E-02  -2.77098700E-08
   2.92000007E-02  -2.77688414E-08
   2.92499997E-02  -2.78163146E-08
   2.93000005E-02  -2.78520247E-08
   2.93499995E-02  -2.78757035E-08
   2.94000003E-02  -2.78870811E-08
   2.94499993E-02  -2.78858909E-08
   2.95000002E-02  -2.78718684E-08
   2.95499992E-02  -2.78447452E-08
   2.96000000E-02  -2.78042585E-08
   2.96500009E-02  -2.77501488E-08
   2.96999998E-02  -2.76821517E-08
   2.97500007E-02  -2.76000094E-08
   2.97999997E-02  -2.75034626E-08
   2.98500005E-02  -2.73922574E-08
   2.98999995E-02  -2.72661378E-08
   2.99500003E-02  -2.71248535E-08
   2.99999993E-02  -2.69681522E-08
   3.00500002E-02  -2.67957905E-08
   3.00999992E-02  -2.66075215E-08
   3.01500000E-02  -2.64031090E-08
   3.02000009E-02  -2.61823132E-08
   3.02499998E-02  -2.59448960E-08
   3.03000007E-02  -2.56906301E-08
   3.03499997E-02  -2.54192898E-08
   3.04000005E-02  -2.51306513E-08
   3.04499995E-02  -2.48244909E-08
   3.05000003E-02  -2.45005953E-08
   3.05499993E-02  -2.41587550E-08
   3.06000002E-02  -2.37987638E-08
   3.06499992E-02  -2.34204194E-08
   3.07000000E-02  -2.30235244E-08
   3.07500008E-02  -2.26078907E-08
   3.07999998E-02  -2.21733298E-08
   3.08500007E-02  -2.17196625E-08
   3.08999997E-02  -2.12467128E-08
   3.09500005E-02  -2.07543120E-08
   3.09999995E-02  -2.02422985E-08
   3.10500003E-02  -1.97105123E-08
   3.10999993E-02  -1.91588061E-08
   3.11500002E-02  -1.85870341E-08
   3.11999992E-02  -1.79950614E-08
   3.12500000E-02  -1.73827601E-08
   3.13000008E-02  -1.67500041E-08
   3.13500017E-02  -1.60966795E-08
   3.13999988E-02  -1.54226782E-08
   3.14499997E-02  -1.47279042E-08
   3.15000005E-02  -1.40122642E-08
   3.15500014E-02  -1.32756748E-08
   3.15999985E-02  -1.25180595E-08
   3.16499993E-02  -1.17393526E-08
   3.17000002E-02  -1.09394929E-08
   3.17500010E-02  -1.01184332E-08
   3.18000019E-02  -9.27613364E-09
   3.18499990E-02  -8.41256576E-09
   3.18999998E-02  -7.52770468E-09
   3.19500007E-02  -6.62153887E-09
   3.20000015E-02  -5.69406744E-09
   3.20499986E-02  -4.74529793E-09
   3.20999995E-02  -3.77524900E-09
   3.21500003E-02  -2.78394752E-09
   3.22000012E-02  -1.77143233E-09
   3.22499983E-02  -7.37753414E-10
   3.22999991E-02   3.17030097E-10
   3.23500000E-02   1.39284784E-09
   3.24000008E-02   2.48961785E-09
   3.24500017E-02   3.60724783E-09
   3.24999988E-02   4.74563233E-09
   3.25499997E-02   5.90465543E-09
   3.26000005E-02   7.08419012E-09
   3.26500013E-02   8.28409696E-09
   3.26999985E-02   9.50422496E-09
   3.27499993E-02   1.07444107E-08
   3.28000002E-02   1.20044792E-08
   3.28500010E-02   1.32842430E-08
   3.29000019E-02   1.45835024E-08
   3.29499990E-02   1.59020441E-08
   3.29999998E-02   1.72396462E-08
   3.30500007E-02   1.85960669E-08
   3.31000015E-02   1.99710577E-08
   3.31499986E-02   2.13643538E-08
   3.31999995E-02   2.27756836E-08
   3.32500003E-02   2.42047520E-08
   3.33000012E-02   2.56512607E-08
   3.33499983E-02   2.71148899E-08
   3.33999991E-02   2.85953146E-08
   3.34500000E-02   3.00921883E-08
   3.35000008E-02   3.16051612E-08
   3.35500017E-02   3.31338548E-08
   3.35999988E-02   3.46778961E-08
   3.36499996E-02   3.62368837E-08
   3.37000005E-02   3.78104055E-08
   3.37500013E-02   3.93980422E-08
   3.37999985E-02   4.09993568E-08
   3.38499993E-02   4.26138982E-08
   3.39000002E-02   4.42411974E-08
   3.39500010E-02   4.58807818E-08
   3.40000018E-02   4.75321542E-08
   3.40499990E-02   4.91948136E-08
   3.40999998E-02   5.08682412E-08
   3.41500007E-02   5.25519006E-08
   3.42000015E-02   5.42452447E-08
   3.42499986E-02   5.59477193E-08
   3.42999995E-02   5.76587453E-08
   3.43500003E-02   5.93777365E-08
   3.44000012E-02   6.11040889E-08
   3.44499983E-02   6.28371879E-08
   3.44999991E-02   6.45764189E-08
   3.45500000E-02   6.63211281E-08
   3.46000008E-02   6.80706762E-08
   3.46500017E-02   6.98243809E-08
   3.46999988E-02   7.15815673E-08
   3.47499996E-02   7.33415462E-08
   3.48000005E-02   7.51036140E-08
   3.48500013E-02   7.68670532E-08
   3.48999985E-02   7.86311389E-08
   3.49499993E-02   8.03951110E-08
   3.50000001E-02   8.21582304E-08
   3.50500010E-02   8.39197298E-08
   3.51000018E-02   8.56788276E-08
   3.51499990E-02   8.74347279E-08
   3.51999998E-02   8.91866350E-08
   3.52500007E-02   9.09337388E-08
   3.53000015E-02   9.26752222E-08
   3.53499986E-02   9.44102325E-08
   3.53999995E-02   9.61379385E-08
   3.54500003E-02   9.78574732E-08
   3.55000012E-02   9.95679699E-08
   3.55499983E-02   1.01268562E-07
   3.55999991E-02   1.02958353E-07
   3.56500000E-02   1.04636463E-07
   3.57000008E-02   1.06301975E-07
   3.57500017E-02   1.07953980E-07
   3.57999988E-02   1.09591547E-07
   3.58499996E-02   1.11213758E-07
   3.59000005E-02   1.12819663E-07
   3.59500013E-02   1.14408316E-07
   3.59999985E-02   1.15978764E-07
   3.60499993E-02   1.17530050E-07
   3.61000001E-02   1.19061198E-07
   3.61500010E-02   1.20571244E-07
   3.62000018E-02   1.22059191E-07
   3.62499990E-02   1.23524060E-07
   3.62999998E-02   1.24964856E-07
   3.63500006E-02   1.26380584E-07
   3.64000015E-02   1.27770235E-07
   3.64499986E-02   1.29132800E-07
   3.64999995E-02   1.30467271E-07
   3.65500003E-02   1.31772623E-07
   3.66000012E-02   1.33047863E-07
   3.66499983E-02   1.34291952E-07
   3.66999991E-02   1.35503868E-07
   3.67500000E-02   1.36682573E-07
   3.68000008E-02   1.37827030E-07
   3.68500017E-02   1.38936244E-07
   3.68999988E-02   1.40009163E-07
   3.69499996E-02   1.41044765E-07
   3.70000005E-02   1.42042026E-07
   3.70500013E-02   1.42999895E-07
   3.70999984E-02   1.43917362E-07
   3.71499993E-02   1.44793390E-07
   3.72000001E-02   1.45626942E-07
   3.72500010E-02   1.46417008E-07
   3.73000018E-02   1.47162567E-07
   3.73499990E-02   1.47862607E-07
   3.73999998E-02   1.48516094E-07
   3.74500006E-02   1.49122044E-07
   3.75000015E-02   1.49679437E-07
   3.75499986E-02   1.50187276E-07
   3.75999995E-02   1.50644581E-07
   3.76500003E-02   1.51050344E-07
   3.77000012E-02   1.51403611E-07
   3.77499983E-02   1.51703389E-07
   3.77999991E-02   1.51948726E-07
   3.78500000E-02   1.52138639E-07
   3.79000008E-02   1.52272221E-07
   3.79500017E-02   1.52348520E-07
   3.79999988E-02   1.52366582E-07
   3.80499996E-02   1.52325526E-07
   3.81000005E-02   1.52224430E-07
   3.81500013E-02   1.52062412E-07
   3.81999984E-02   1.51838577E-07
   3.82499993E-02   1.51552072E-07
   3.83000001E-02   1.51202030E-07
   3.83500010E-02   1.50787599E-07
   3.84000018E-02   1.50307969E-07
   3.84499989E-02   1.49762300E-07
   3.84999998E-02   1.49149841E-07
   3.85500006E-02   1.48469766E-07
   3.86000015E-02   1.47721323E-07
   3.86499986E-02   1.46903787E-07
   3.86999995E-02   1.46016404E-07
   3.87500003E-02   1.45058465E-07
   3.88000011E-02   1.44029272E-07
   3.88499983E-02   1.42928172E-07
   3.88999991E-02   1.41754512E-07
   3.89500000E-02   1.40507652E-07
   3.90000008E-02   1.39186994E-07
   3.90500017E-02   1.37791915E-07
   3.90999988E-02   1.36321873E-07
   3.91499996E-02   1.34776300E-07
   3.92000005E-02   1.33154714E-07
   3.92500013E-02   1.31456574E-07
   3.92999984E-02   1.29681410E-07
   3.93499993E-02   1.27828798E-07
   3.94000001E-02   1.25898310E-07
   3.94500010E-02   1.23889521E-07
   3.95000018E-02   1.21802074E-07
   3.95499989E-02   1.19635644E-07
   3.95999998E-02   1.17389895E-07
   3.96500006E-02   1.15064545E-07
   3.97000015E-02   1.12659308E-07
   3.97499986E-02   1.10173964E-07
   3.97999994E-02   1.07608308E-07
   3.98500003E-02   1.04962190E-07
   3.99000011E-02   1.02235433E-07
   3.99499983E-02   9.94279361E-08
   3.99999991E-02   9.65396083E-08
   4.00500000E-02   9.35704065E-08
   4.01000008E-02   9.05203095E-08
   4.01500016E-02   8.73893242E-08
   4.01999988E-02   8.41774934E-08
   4.02499996E-02   8.08849165E-08
   4.03000005E-02   7.75116860E-08
   4.03500013E-02   7.40579509E-08
   4.03999984E-02   7.05238961E-08
   4.04499993E-02   6.69097417E-08
   4.05000001E-02   6.32157438E-08
   4.05500010E-02   5.94421898E-08
   4.06000018E-02   5.55893891E-08
   4.06499989E-02   5.16577003E-08
   4.06999998E-02   4.76475250E-08
   4.07500006E-02   4.35592895E-08
   4.08000015E-02   3.93934663E-08
   4.08499986E-02   3.51505633E-08
   4.08999994E-02   3.08311172E-08
   4.09500003E-02   2.64357052E-08
   4.10000011E-02   2.19649543E-08
   4.10499983E-02   1.74195058E-08
   4.10999991E-02   1.28000650E-08
   4.11499999E-02   8.10737166E-09
   4.12000008E-02   3.34219541E-09
   4.12500016E-02  -1.49465473E-09
   4.12999988E-02  -6.40232622E-09
   4.13499996E-02  -1.13799263E-08
   4.14000005E-02  -1.64265259E-08
   4.14500013E-02  -2.15411493E-08
   4.14999984E-02  -2.67227946E-08
   4.15499993E-02  -3.19704050E-08
   4.16000001E-02  -3.72828950E-08
   4.16500010E-02  -4.26591349E-08
   4.17000018E-02  -4.80979523E-08
   4.17499989E-02  -5.35981393E-08
   4.17999998E-02  -5.91584417E-08
   4.18500006E-02  -6.47775735E-08
   4.19000015E-02  -7.04542131E-08
   4.19499986E-02  -7.61869856E-08
   4.19999994E-02  -8.19744770E-08
   4.20500003E-02  -8.78152449E-08
   4.21000011E-02  -9.37077900E-08
   4.21499982E-02  -9.96505847E-08
   4.21999991E-02  -1.05642066E-07
   4.22499999E-02  -1.11680635E-07
   4.23000008E-02  -1.17764635E-07
   4.23500016E-02  -1.23892377E-07
   4.23999988E-02  -1.30062134E-07
   4.24499996E-02  -1.36272163E-07
   4.25000004E-02  -1.42520634E-07
   4.25500013E-02  -1.48805725E-07
   4.25999984E-02  -1.55125562E-07
   4.26499993E-02  -1.61478212E-07
   4.27000001E-02  -1.67861728E-07
   4.27500010E-02  -1.74274135E-07
   4.28000018E-02  -1.80713414E-07