   0.00000000       0.00000000    
   4.99999987E-05   0.00000000    
   9.99999975E-05   0.00000000    
   1.50000007E-04   0.00000000    
   1.99999995E-04   2.50571251E-26
   2.50000012E-04   2.53773151E-25
   3.00000014E-04   1.38921531E-24
   3.49999988E-04   5.47830254E-24
   3.99999990E-04   1.74595634E-23
   4.49999992E-04   4.77967162E-23
   5.00000024E-04   1.16642791E-22
   5.49999997E-04   2.60064216E-22
   6.00000028E-04   5.38939370E-22
   6.50000002E-04   1.05127204E-21
   6.99999975E-04   1.94876260E-21
   7.50000007E-04   3.45860370E-21
   7.99999980E-04   5.91144786E-21
   8.50000011E-04   9.77686771E-21
   8.99999985E-04   1.57074781E-20
   9.50000016E-04   2.45933010E-20
   1.00000005E-03   3.76279129E-20
   1.04999996E-03   5.63880493E-20
   1.09999999E-03   8.29279002E-20
   1.15000003E-03   1.19890175E-19
   1.20000006E-03   1.70638055E-19
   1.24999997E-03   2.39405947E-19
   1.30000000E-03   3.31477431E-19
   1.35000004E-03   4.53386741E-19
   1.39999995E-03   6.13149439E-19
   1.44999998E-03   8.20524135E-19
   1.50000001E-03   1.08730617E-18
   1.55000004E-03   1.42767021E-18
   1.59999996E-03   1.85853484E-18
   1.64999999E-03   2.39999258E-18
   1.70000002E-03   3.07576957E-18
   1.75000005E-03   3.91372442E-18
   1.79999997E-03   4.94642881E-18
   1.85000000E-03   6.21181414E-18
   1.90000003E-03   7.75385623E-18
   1.94999995E-03   9.62327118E-18
   2.00000009E-03   1.18783988E-17
   2.05000001E-03   1.45861141E-17
   2.09999993E-03   1.78227362E-17
   2.15000007E-03   2.16750404E-17
   2.19999999E-03   2.62415357E-17
   2.24999990E-03   3.16336696E-17
   2.30000005E-03   3.79769670E-17
   2.34999997E-03   4.54125928E-17
   2.40000011E-03   5.40987569E-17
   2.45000003E-03   6.42125288E-17
   2.49999994E-03   7.59514327E-17
   2.55000009E-03   8.95352736E-17
   2.60000001E-03   1.05207977E-16
   2.64999992E-03   1.23239813E-16
   2.70000007E-03   1.43929400E-16
   2.74999999E-03   1.67606009E-16
   2.79999990E-03   1.94632766E-16
   2.85000005E-03   2.25408067E-16
   2.89999996E-03   2.60368796E-16
   2.95000011E-03   2.99993791E-16
   3.00000003E-03   3.44805619E-16
   3.04999994E-03   3.95374466E-16
   3.10000009E-03   4.52321152E-16
   3.15000000E-03   5.16320315E-16
   3.19999992E-03   5.88105298E-16
   3.25000007E-03   6.68470514E-16
   3.29999998E-03   7.58275171E-16
   3.34999990E-03   8.58449204E-16
   3.40000005E-03   9.69996508E-16
   3.44999996E-03   1.09399758E-15
   3.50000011E-03   1.23161333E-15
   3.55000002E-03   1.38409334E-15
   3.59999994E-03   1.55278154E-15
   3.65000009E-03   1.73911555E-15
   3.70000000E-03   1.94463688E-15
   3.74999992E-03   2.17099224E-15
   3.80000006E-03   2.41994052E-15
   3.84999998E-03   2.69336043E-15
   3.89999989E-03   2.99325053E-15
   3.94999981E-03   3.32174368E-15
   4.00000019E-03   3.68110651E-15
   4.05000011E-03   4.07373889E-15
   4.10000002E-03   4.50219992E-15
   4.14999994E-03   4.96920306E-15
   4.19999985E-03   5.47761045E-15
   4.25000023E-03   6.03045742E-15
   4.30000015E-03   6.63094872E-15
   4.35000006E-03   7.28246571E-15
   4.39999998E-03   7.98858118E-15
   4.44999989E-03   8.75306060E-15
   4.49999981E-03   9.57985962E-15
   4.55000019E-03   1.04731397E-14
   4.60000010E-03   1.14372936E-14
   4.65000002E-03   1.24769283E-14
   4.69999993E-03   1.35968304E-14
   4.74999985E-03   1.48020617E-14
   4.80000023E-03   1.60979560E-14
   4.85000014E-03   1.74900242E-14
   4.90000006E-03   1.89840412E-14
   4.94999997E-03   2.05860905E-14
   4.99999989E-03   2.23025130E-14
   5.04999980E-03   2.41398579E-14
   5.10000018E-03   2.61049540E-14
   5.15000010E-03   2.82049401E-14
   5.20000001E-03   3.04472532E-14
   5.24999993E-03   3.28396300E-14
   5.29999984E-03   3.53900326E-14
   5.35000023E-03   3.81067993E-14
   5.40000014E-03   4.09985427E-14
   5.45000006E-03   4.40741397E-14
   5.49999997E-03   4.73428534E-14
   5.54999989E-03   5.08142519E-14
   5.59999980E-03   5.44981947E-14
   5.65000018E-03   5.84048258E-14
   5.70000010E-03   6.25446350E-14
   5.75000001E-03   6.69285048E-14
   5.79999993E-03   7.15675620E-14
   5.84999984E-03   7.64733668E-14
   5.90000022E-03   8.16576353E-14
   5.95000014E-03   8.71324090E-14
   6.00000005E-03   9.29102376E-14
   6.04999997E-03   9.90038468E-14
   6.09999988E-03   1.05426227E-13
   6.14999980E-03   1.12190564E-13
   6.20000018E-03   1.19310540E-13
   6.25000009E-03   1.26800141E-13
   6.30000001E-03   1.34673671E-13
   6.34999992E-03   1.42945687E-13
   6.39999984E-03   1.51630919E-13
   6.45000022E-03   1.60744139E-13
   6.50000013E-03   1.70300650E-13
   6.55000005E-03   1.80315994E-13
   6.59999996E-03   1.90805786E-13
   6.64999988E-03   2.01786070E-13
   6.69999979E-03   2.13272881E-13
   6.75000018E-03   2.25282507E-13
   6.80000009E-03   2.37831483E-13
   6.85000001E-03   2.50936316E-13
   6.89999992E-03   2.64613391E-13
   6.94999984E-03   2.78879513E-13
   7.00000022E-03   2.93751893E-13
   7.05000013E-03   3.09247284E-13
   7.10000005E-03   3.25382055E-13
   7.14999996E-03   3.42173176E-13
   7.19999988E-03   3.59637992E-13
   7.24999979E-03   3.77793093E-13
   7.30000017E-03   3.96654470E-13
   7.35000009E-03   4.16238767E-13
   7.40000000E-03   4.36562218E-13
   7.44999992E-03   4.57640761E-13
   7.49999983E-03   4.79490525E-13
   7.55000021E-03   5.02126498E-13
   7.60000013E-03   5.25563479E-13
   7.65000004E-03   5.49816323E-13
   7.69999996E-03   5.74899232E-13
   7.74999987E-03   6.00825542E-13
   7.79999979E-03   6.27608480E-13
   7.84999970E-03   6.55260514E-13
   7.89999962E-03   6.83793029E-13
   7.95000046E-03   7.13217300E-13
   8.00000038E-03   7.43542923E-13
   8.05000030E-03   7.74778841E-13
   8.10000021E-03   8.06934435E-13
   8.15000013E-03   8.40016533E-13
   8.20000004E-03   8.74031316E-13
   8.24999996E-03   9.08984964E-13
   8.29999987E-03   9.44880133E-13
   8.34999979E-03   9.81719480E-13
   8.39999970E-03   1.01950382E-12
   8.44999962E-03   1.05823184E-12
   8.50000046E-03   1.09790345E-12
   8.55000038E-03   1.13851376E-12
   8.60000029E-03   1.18005757E-12
   8.65000021E-03   1.22252750E-12
   8.70000012E-03   1.26591597E-12
   8.75000004E-03   1.31021301E-12
   8.79999995E-03   1.35540331E-12
   8.84999987E-03   1.40147247E-12
   8.89999978E-03   1.44840249E-12
   8.94999970E-03   1.49617352E-12
   8.99999961E-03   1.54476453E-12
   9.05000046E-03   1.59414701E-12
   9.10000037E-03   1.64429310E-12
   9.15000029E-03   1.69517406E-12
   9.20000020E-03   1.74675595E-12
   9.25000012E-03   1.79900029E-12
   9.30000003E-03   1.85186610E-12
   9.34999995E-03   1.90531380E-12
   9.39999986E-03   1.95929579E-12
   9.44999978E-03   2.01375917E-12
   9.49999969E-03   2.06865384E-12
   9.54999961E-03   2.12391845E-12
   9.60000046E-03   2.17948836E-12
   9.65000037E-03   2.23530417E-12
   9.70000029E-03   2.29129758E-12
   9.75000020E-03   2.34739094E-12
   9.80000012E-03   2.40350665E-12
   9.85000003E-03   2.45955968E-12
   9.89999995E-03   2.51546158E-12
   9.94999986E-03   2.57112322E-12
   9.99999978E-03   2.62644442E-12
   1.00499997E-02   2.68132283E-12
   1.00999996E-02   2.73565090E-12
   1.01500005E-02   2.78931999E-12
   1.02000004E-02   2.84221388E-12
   1.02500003E-02   2.89420527E-12
   1.03000002E-02   2.94515822E-12
   1.03500001E-02   2.99493633E-12
   1.04000000E-02   3.04340038E-12
   1.04499999E-02   3.09041052E-12
   1.04999999E-02   3.13580954E-12
   1.05499998E-02   3.17943588E-12
   1.05999997E-02   3.22112844E-12
   1.06499996E-02   3.26070984E-12
   1.07000005E-02   3.29800532E-12
   1.07500004E-02   3.33282447E-12
   1.08000003E-02   3.36496499E-12
   1.08500002E-02   3.39423259E-12
   1.09000001E-02   3.42042887E-12
   1.09500000E-02   3.44333589E-12
   1.09999999E-02   3.46272663E-12
   1.10499999E-02   3.47837341E-12
   1.10999998E-02   3.49004549E-12
   1.11499997E-02   3.49749613E-12
   1.11999996E-02   3.50047357E-12
   1.12500004E-02   3.49871456E-12
   1.13000004E-02   3.49195716E-12
   1.13500003E-02   3.47993444E-12
   1.14000002E-02   3.46235150E-12
   1.14500001E-02   3.43891473E-12
   1.15000000E-02   3.40933206E-12
   1.15499999E-02   3.37329860E-12
   1.15999999E-02   3.33049885E-12
   1.16499998E-02   3.28060994E-12
   1.16999997E-02   3.22330379E-12
   1.17499996E-02   3.15823626E-12
   1.18000004E-02   3.08506020E-12
   1.18500004E-02   3.00342477E-12
   1.19000003E-02   2.91296371E-12
   1.19500002E-02   2.81330298E-12
   1.20000001E-02   2.70407091E-12
   1.20500000E-02   2.58489085E-12
   1.20999999E-02   2.45536404E-12
   1.21499998E-02   2.31508367E-12
   1.21999998E-02   2.16363039E-12
   1.22499997E-02   2.00058351E-12
   1.22999996E-02   1.82553365E-12
   1.23500004E-02   1.63806783E-12
   1.24000004E-02   1.43773676E-12
   1.24500003E-02   1.22408995E-12
   1.25000002E-02   9.96670845E-13
   1.25500001E-02   7.55010258E-13
   1.26000000E-02   4.98650383E-13
   1.26499999E-02   2.27125949E-13
   1.26999998E-02  -6.00654644E-14
   1.27499998E-02  -3.63412886E-13
   1.27999997E-02  -6.83383580E-13
   1.28499996E-02  -1.02048155E-12
   1.29000004E-02  -1.37520290E-12
   1.29500004E-02  -1.74807217E-12
   1.30000003E-02  -2.13959384E-12
   1.30500002E-02  -2.55025970E-12
   1.31000001E-02  -2.98062985E-12
   1.31500000E-02  -3.43122124E-12
   1.31999999E-02  -3.90256317E-12
   1.32499998E-02  -4.39518994E-12
   1.32999998E-02  -4.90962652E-12
   1.33499997E-02  -5.44644278E-12
   1.33999996E-02  -6.00615044E-12
   1.34500004E-02  -6.58927123E-12
   1.35000004E-02  -7.19635332E-12
   1.35500003E-02  -7.82794142E-12
   1.36000002E-02  -8.48457936E-12
   1.36500001E-02  -9.16681488E-12
   1.37000000E-02  -9.87520395E-12
   1.37499999E-02  -1.06102731E-11
   1.37999998E-02  -1.13725383E-11
   1.38499998E-02  -1.21625453E-11
   1.38999997E-02  -1.29808143E-11
   1.39499996E-02  -1.38278651E-11
   1.40000004E-02  -1.47042239E-11
   1.40500003E-02  -1.56103932E-11
   1.41000003E-02  -1.65468923E-11
   1.41500002E-02  -1.75142192E-11
   1.42000001E-02  -1.85128995E-11
   1.42500000E-02  -1.95434328E-11
   1.42999999E-02  -2.06062736E-11
   1.43499998E-02  -2.17018729E-11
   1.43999998E-02  -2.28306974E-11
   1.44499997E-02  -2.39931981E-11
   1.44999996E-02  -2.51898225E-11
   1.45500004E-02  -2.64210147E-11
   1.46000003E-02  -2.76871703E-11
   1.46500003E-02  -2.89886674E-11
   1.47000002E-02  -3.03258703E-11
   1.47500001E-02  -3.16991398E-11
   1.48000000E-02  -3.31088455E-11
   1.48499999E-02  -3.45553273E-11
   1.48999998E-02  -3.60388906E-11
   1.49499997E-02  -3.75597956E-11
   1.49999997E-02  -3.91182711E-11
   1.50499996E-02  -4.07146088E-11
   1.51000004E-02  -4.23490722E-11
   1.51500003E-02  -4.40218244E-11
   1.52000003E-02  -4.57330077E-11
   1.52500002E-02  -4.74827608E-11
   1.53000001E-02  -4.92712260E-11
   1.53500000E-02  -5.10984935E-11
   1.53999999E-02  -5.29645806E-11
   1.54499998E-02  -5.48695291E-11
   1.54999997E-02  -5.68133596E-11
   1.55499997E-02  -5.87959681E-11
   1.55999996E-02  -6.08172887E-11
   1.56500004E-02  -6.28772312E-11
   1.56999994E-02  -6.49756082E-11
   1.57500003E-02  -6.71122949E-11
   1.57999992E-02  -6.92870553E-11
   1.58500001E-02  -7.14995285E-11
   1.59000009E-02  -7.37494857E-11
   1.59499999E-02  -7.60365729E-11
   1.60000008E-02  -7.83603460E-11
   1.60499997E-02  -8.07204373E-11
   1.61000006E-02  -8.31163541E-11
   1.61499996E-02  -8.55475690E-11
   1.62000004E-02  -8.80134715E-11
   1.62499994E-02  -9.05134231E-11
   1.63000003E-02  -9.30467092E-11
   1.63499992E-02  -9.56125734E-11
   1.64000001E-02  -9.82103079E-11
   1.64500009E-02  -1.00839032E-10
   1.64999999E-02  -1.03497766E-10
   1.65500008E-02  -1.06185581E-10
   1.65999997E-02  -1.08901450E-10
   1.66500006E-02  -1.11644256E-10
   1.66999996E-02  -1.14412875E-10
   1.67500004E-02  -1.17206050E-10
   1.67999994E-02  -1.20022547E-10
   1.68500002E-02  -1.22861055E-10
   1.68999992E-02  -1.25720129E-10
   1.69500001E-02  -1.28598313E-10
   1.70000009E-02  -1.31494052E-10
   1.70499999E-02  -1.34405737E-10
   1.71000008E-02  -1.37331632E-10
   1.71499997E-02  -1.40269990E-10
   1.72000006E-02  -1.43219062E-10
   1.72499996E-02  -1.46176876E-10
   1.73000004E-02  -1.49141477E-10
   1.73499994E-02  -1.52110810E-10
   1.74000002E-02  -1.55082766E-10
   1.74499992E-02  -1.58055138E-10
   1.75000001E-02  -1.61025623E-10
   1.75500009E-02  -1.63991848E-10
   1.75999999E-02  -1.66951356E-10
   1.76500008E-02  -1.69901662E-10
   1.76999997E-02  -1.72840173E-10
   1.77500006E-02  -1.75764236E-10
   1.77999996E-02  -1.78671036E-10
   1.78500004E-02  -1.81557727E-10
   1.78999994E-02  -1.84421353E-10
   1.79500002E-02  -1.87258917E-10
   1.79999992E-02  -1.90067281E-10
   1.80500001E-02  -1.92843339E-10
   1.81000009E-02  -1.95583813E-10
   1.81499999E-02  -1.98285291E-10
   1.82000007E-02  -2.00944317E-10
   1.82499997E-02  -2.03557393E-10
   1.83000006E-02  -2.06120856E-10
   1.83499996E-02  -2.08631029E-10
   1.84000004E-02  -2.11084192E-10
   1.84499994E-02  -2.13476500E-10
   1.85000002E-02  -2.15803958E-10
   1.85499992E-02  -2.18062471E-10
   1.86000001E-02  -2.20247987E-10
   1.86500009E-02  -2.22356272E-10
   1.86999999E-02  -2.24383068E-10
   1.87500007E-02  -2.26323960E-10
   1.87999997E-02  -2.28174535E-10
   1.88500006E-02  -2.29930269E-10
   1.88999996E-02  -2.31586555E-10
   1.89500004E-02  -2.33138703E-10
   1.89999994E-02  -2.34581965E-10
   1.90500002E-02  -2.35911457E-10
   1.90999992E-02  -2.37122239E-10
   1.91500001E-02  -2.38209369E-10
   1.92000009E-02  -2.39167852E-10
   1.92499999E-02  -2.39992443E-10
   1.93000007E-02  -2.40677978E-10
   1.93499997E-02  -2.41219184E-10
   1.94000006E-02  -2.41610759E-10
   1.94499996E-02  -2.41847237E-10
   1.95000004E-02  -2.41923148E-10
   1.95499994E-02  -2.41833054E-10
   1.96000002E-02  -2.41571319E-10
   1.96499992E-02  -2.41132309E-10
   1.97000001E-02  -2.40510306E-10
   1.97500009E-02  -2.39699594E-10
   1.97999999E-02  -2.38694425E-10
   1.98500007E-02  -2.37488862E-10
   1.98999997E-02  -2.36077075E-10
   1.99500006E-02  -2.34453179E-10
   1.99999996E-02  -2.32611194E-10
   2.00500004E-02  -2.30545125E-10
   2.00999994E-02  -2.28248975E-10
   2.01500002E-02  -2.25716681E-10
   2.01999992E-02  -2.22942206E-10
   2.02500001E-02  -2.19919513E-10
   2.03000009E-02  -2.16642482E-10
   2.03499999E-02  -2.13104992E-10
   2.04000007E-02  -2.09300965E-10
   2.04499997E-02  -2.05224282E-10
   2.05000006E-02  -2.00868738E-10
   2.05499995E-02  -1.96228256E-10
   2.06000004E-02  -1.91296728E-10
   2.06499994E-02  -1.86068105E-10
   2.07000002E-02  -1.80536322E-10
   2.07499992E-02  -1.74695355E-10
   2.08000001E-02  -1.68539127E-10
   2.08500009E-02  -1.62061684E-10
   2.08999999E-02  -1.55257140E-10
   2.09500007E-02  -1.48119572E-10
   2.09999997E-02  -1.40643136E-10
   2.10500006E-02  -1.32822114E-10
   2.10999995E-02  -1.24650762E-10
   2.11500004E-02  -1.16123396E-10
   2.11999994E-02  -1.07234464E-10
   2.12500002E-02  -9.79783893E-11
   2.12999992E-02  -8.83498066E-11
   2.13500001E-02  -7.83433943E-11
   2.14000009E-02  -6.79539272E-11
   2.14499999E-02  -5.71762568E-11
   2.15000007E-02  -4.60053731E-11
   2.15499997E-02  -3.44363878E-11
   2.16000006E-02  -2.24645615E-11
   2.16499995E-02  -1.00853076E-11
   2.17000004E-02   2.70596067E-12
   2.17499994E-02   1.59136575E-11
   2.18000002E-02   2.95420147E-11
   2.18499992E-02   4.35949887E-11
   2.19000001E-02   5.80763666E-11
   2.19500009E-02   7.29899613E-11
   2.19999999E-02   8.83393289E-11
   2.20500007E-02   1.04127748E-10
   2.20999997E-02   1.20358459E-10
   2.21500006E-02   1.37034398E-10
   2.21999995E-02   1.54158117E-10
   2.22500004E-02   1.71732156E-10
   2.22999994E-02   1.89759028E-10
   2.23500002E-02   2.08240591E-10
   2.23999992E-02   2.27178623E-10
   2.24500000E-02   2.46574816E-10
   2.25000009E-02   2.66430517E-10
   2.25499999E-02   2.86746626E-10
   2.26000007E-02   3.07523979E-10
   2.26499997E-02   3.28763239E-10
   2.27000006E-02   3.50464407E-10
   2.27499995E-02   3.72627429E-10
   2.28000004E-02   3.95251998E-10
   2.28499994E-02   4.18337226E-10
   2.29000002E-02   4.41882420E-10
   2.29499992E-02   4.65885885E-10
   2.30000000E-02   4.90345875E-10
   2.30500009E-02   5.15260723E-10
   2.30999999E-02   5.40627987E-10
   2.31500007E-02   5.66444669E-10
   2.31999997E-02   5.92707772E-10
   2.32500006E-02   6.19413687E-10
   2.32999995E-02   6.46558307E-10
   2.33500004E-02   6.74137579E-10
   2.33999994E-02   7.02147174E-10
   2.34500002E-02   7.30581706E-10
   2.34999992E-02   7.59435792E-10
   2.35500000E-02   7.88703713E-10
   2.36000009E-02   8.18378754E-10
   2.36499999E-02   8.48454307E-10
   2.37000007E-02   8.78923545E-10
   2.37499997E-02   9.09778697E-10
   2.38000005E-02   9.41011713E-10
   2.38499995E-02   9.72613989E-10
   2.39000004E-02   1.00457676E-09
   2.39499994E-02   1.03688969E-09
   2.40000002E-02   1.06954323E-09
   2.40499992E-02   1.10252729E-09
   2.41000000E-02   1.13583054E-09
   2.41500009E-02   1.16944154E-09
   2.41999999E-02   1.20334831E-09
   2.42500007E-02   1.23753852E-09
   2.42999997E-02   1.27199951E-09
   2.43500005E-02   1.30671729E-09
   2.43999995E-02   1.34167821E-09
   2.44500004E-02   1.37686773E-09
   2.44999994E-02   1.41227063E-09
   2.45500002E-02   1.44787171E-09
   2.45999992E-02   1.48365487E-09
   2.46500000E-02   1.51960333E-09
   2.47000009E-02   1.55569990E-09
   2.47499999E-02   1.59192670E-09
   2.48000007E-02   1.62826541E-09
   2.48499997E-02   1.66469727E-09
   2.49000005E-02   1.70120296E-09
   2.49499995E-02   1.73776271E-09
   2.50000004E-02   1.77435644E-09
   2.50499994E-02   1.81096249E-09
   2.51000002E-02   1.84755888E-09
   2.51499992E-02   1.88412352E-09
   2.52000000E-02   1.92063432E-09
   2.52500009E-02   1.95706829E-09
   2.52999999E-02   1.99340078E-09
   2.53500007E-02   2.02960804E-09
   2.53999997E-02   2.06566497E-09
   2.54500005E-02   2.10154649E-09
   2.54999995E-02   2.13722595E-09
   2.55500004E-02   2.17267693E-09
   2.55999994E-02   2.20787277E-09
   2.56500002E-02   2.24278529E-09
   2.56999992E-02   2.27738650E-09
   2.57500000E-02   2.31164821E-09
   2.58000009E-02   2.34554087E-09
   2.58499999E-02   2.37903475E-09
   2.59000007E-02   2.41209985E-09
   2.59499997E-02   2.44470577E-09
   2.60000005E-02   2.47682053E-09
   2.60499995E-02   2.50841348E-09
   2.61000004E-02   2.53945243E-09
   2.61499994E-02   2.56990385E-09
   2.62000002E-02   2.59973398E-09
   2.62499992E-02   2.62890931E-09
   2.63000000E-02   2.65739608E-09
   2.63500009E-02   2.68516054E-09
   2.63999999E-02   2.71216782E-09
   2.64500007E-02   2.73838285E-09
   2.64999997E-02   2.76377055E-09
   2.65500005E-02   2.78829382E-09
   2.65999995E-02   2.81191537E-09
   2.66500004E-02   2.83459856E-09
   2.66999993E-02   2.85630697E-09
   2.67500002E-02   2.87700308E-09
   2.67999992E-02   2.89664825E-09
   2.68500000E-02   2.91520497E-09
   2.69000009E-02   2.93263547E-09
   2.69499999E-02   2.94889957E-09
   2.70000007E-02   2.96395886E-09
   2.70499997E-02   2.97777514E-09
   2.71000005E-02   2.99030778E-09
   2.71499995E-02   3.00151748E-09
   2.72000004E-02   3.01136516E-09
   2.72499993E-02   3.01980951E-09
   2.73000002E-02   3.02681058E-09
   2.73499992E-02   3.03232883E-09
   2.74000000E-02   3.03632319E-09
   2.74500009E-02   3.03875369E-09
   2.74999999E-02   3.03958014E-09
   2.75500007E-02   3.03876124E-09
   2.75999997E-02   3.03625747E-09
   2.76500005E-02   3.03202841E-09
   2.76999995E-02   3.02603276E-09
   2.77500004E-02   3.01823055E-09
   2.77999993E-02   3.00858072E-09
   2.78500002E-02   2.99704239E-09
   2.78999992E-02   2.98357605E-09
   2.79500000E-02   2.96814306E-09
   2.80000009E-02   2.95070346E-09
   2.80499998E-02   2.93121771E-09
   2.81000007E-02   2.90964541E-09
   2.81499997E-02   2.88594793E-09
   2.82000005E-02   2.86008661E-09
   2.82499995E-02   2.83202262E-09
   2.83000004E-02   2.80171752E-09
   2.83499993E-02   2.76913426E-09
   2.84000002E-02   2.73423550E-09
   2.84499992E-02   2.69698353E-09
   2.85000000E-02   2.65734301E-09
   2.85500009E-02   2.61527955E-09
   2.85999998E-02   2.57075605E-09
   2.86500007E-02   2.52373855E-09
   2.86999997E-02   2.47419418E-09
   2.87500005E-02   2.42208942E-09
   2.87999995E-02   2.36739184E-09
   2.88500004E-02   2.31006814E-09
   2.88999993E-02   2.25008767E-09
   2.89500002E-02   2.18742069E-09
   2.89999992E-02   2.12203677E-09
   2.90500000E-02   2.05390704E-09
   2.91000009E-02   1.98300354E-09
   2.91499998E-02   1.90929961E-09
   2.92000007E-02   1.83276916E-09
   2.92499997E-02   1.75338677E-09
   2.93000005E-02   1.67112912E-09
   2.93499995E-02   1.58597269E-09
   2.94000003E-02   1.49789559E-09
   2.94499993E-02   1.40687695E-09
   2.95000002E-02   1.31289735E-09
   2.95499992E-02   1.21593891E-09
   2.96000000E-02   1.11598397E-09
   2.96500009E-02   1.01301756E-09
   2.96999998E-02   9.07025066E-10
   2.97500007E-02   7.97992838E-10
   2.97999997E-02   6.85909218E-10
   2.98500005E-02   5.70763992E-10
   2.98999995E-02   4.52548554E-10
   2.99500003E-02   3.31255912E-10
   2.99999993E-02   2.06880083E-10
   3.00500002E-02   7.94162583E-11
   3.00999992E-02  -5.11395822E-11
   3.01500000E-02  -1.84787644E-10
   3.02000009E-02  -3.21526999E-10
   3.02499998E-02  -4.61356398E-10
   3.03000007E-02  -6.04270967E-10
   3.03499997E-02  -7.50265183E-10
   3.04000005E-02  -8.99330665E-10
   3.04499995E-02  -1.05145814E-09
   3.05000003E-02  -1.20663723E-09
   3.05499993E-02  -1.36485501E-09
   3.06000002E-02  -1.52609647E-09
   3.06499992E-02  -1.69034375E-09
   3.07000000E-02  -1.85757776E-09
   3.07500008E-02  -2.02777772E-09
   3.07999998E-02  -2.20092033E-09
   3.08500007E-02  -2.37698061E-09
   3.08999997E-02  -2.55593102E-09
   3.09500005E-02  -2.73774292E-09
   3.09999995E-02  -2.92238544E-09
   3.10500003E-02  -3.10982484E-09
   3.10999993E-02  -3.30002403E-09
   3.11500002E-02  -3.49294504E-09
   3.11999992E-02  -3.68854858E-09
   3.12500000E-02  -3.88679089E-09
   3.13000008E-02  -4.08762757E-09
   3.13500017E-02  -4.29101110E-09
   3.13999988E-02  -4.49689175E-09
   3.14499997E-02  -4.70521799E-09
   3.15000005E-02  -4.91593566E-09
   3.15500014E-02  -5.12898835E-09
   3.15999985E-02  -5.34431654E-09
   3.16499993E-02  -5.56185853E-09
   3.17000002E-02  -5.78155035E-09
   3.17500010E-02  -6.00332539E-09
   3.18000019E-02  -6.22711482E-09
   3.18499990E-02  -6.45284759E-09
   3.18999998E-02  -6.68044997E-09
   3.19500007E-02  -6.90984470E-09
   3.20000015E-02  -7.14095272E-09
   3.20499986E-02  -7.37369410E-09
   3.20999995E-02  -7.60798446E-09
   3.21500003E-02  -7.84373633E-09
   3.22000012E-02  -8.08086220E-09
   3.22499983E-02  -8.31927061E-09
   3.22999991E-02  -8.55886739E-09
   3.23500000E-02  -8.79955664E-09
   3.24000008E-02  -9.04123798E-09
   3.24500017E-02  -9.28381194E-09
   3.24999988E-02  -9.52717372E-09
   3.25499997E-02  -9.77121761E-09
   3.26000005E-02  -1.00158326E-08
   3.26500013E-02  -1.02609095E-08
   3.26999985E-02  -1.05063345E-08
   3.27499993E-02  -1.07519922E-08
   3.28000002E-02  -1.09977636E-08
   3.28500010E-02  -1.12435252E-08
   3.29000019E-02  -1.14891563E-08
   3.29499990E-02  -1.17345316E-08
   3.29999998E-02  -1.19795214E-08
   3.30500007E-02  -1.22239951E-08
   3.31000015E-02  -1.24678232E-08
   3.31499986E-02  -1.27108688E-08
   3.31999995E-02  -1.29529942E-08
   3.32500003E-02  -1.31940601E-08
   3.33000012E-02  -1.34339260E-08
   3.33499983E-02  -1.36724481E-08
   3.33999991E-02  -1.39094825E-08
   3.34500000E-02  -1.41448782E-08
   3.35000008E-02  -1.43784868E-08
   3.35500017E-02  -1.46101558E-08
   3.35999988E-02  -1.48397321E-08
   3.36499996E-02  -1.50670605E-08
   3.37000005E-02  -1.52919846E-08
   3.37500013E-02  -1.55143418E-08
   3.37999985E-02  -1.57339741E-08
   3.38499993E-02  -1.59507163E-08
   3.39000002E-02  -1.61644031E-08
   3.39500010E-02  -1.63748730E-08
   3.40000018E-02  -1.65819571E-08
   3.40499990E-02  -1.67854832E-08
   3.40999998E-02  -1.69852861E-08
   3.41500007E-02  -1.71811898E-08
   3.42000015E-02  -1.73730275E-08
   3.42499986E-02  -1.75606196E-08
   3.42999995E-02  -1.77437904E-08
   3.43500003E-02  -1.79223623E-08
   3.44000012E-02  -1.80961663E-08
   3.44499983E-02  -1.82650197E-08
   3.44999991E-02  -1.84287430E-08
   3.45500000E-02  -1.85871567E-08
   3.46000008E-02  -1.87400779E-08
   3.46500017E-02  -1.88873255E-08
   3.46999988E-02  -1.90287217E-08
   3.47499996E-02  -1.91640801E-08
   3.48000005E-02  -1.92932230E-08
   3.48500013E-02  -1.94159657E-08
   3.48999985E-02  -1.95321235E-08
   3.49499993E-02  -1.96415133E-08
   3.50000001E-02  -1.97439523E-08
   3.50500010E-02  -1.98392573E-08
   3.51000018E-02  -1.99272474E-08
   3.51499990E-02  -2.00077395E-08
   3.51999998E-02  -2.00805523E-08
   3.52500007E-02  -2.01455030E-08
   3.53000015E-02  -2.02024104E-08
   3.53499986E-02  -2.02510932E-08
   3.53999995E-02  -2.02913757E-08
   3.54500003E-02  -2.03230783E-08
   3.55000012E-02  -2.03460235E-08
   3.55499983E-02  -2.03600337E-08
   3.55999991E-02  -2.03649311E-08
   3.56500000E-02  -2.03605399E-08
   3.57000008E-02  -2.03466879E-08
   3.57500017E-02  -2.03232098E-08
   3.57999988E-02  -2.02899351E-08
   3.58499996E-02  -2.02466914E-08
   3.59000005E-02  -2.01933137E-08
   3.59500013E-02  -2.01296384E-08
   3.59999985E-02  -2.00555057E-08
   3.60499993E-02  -1.99707539E-08
   3.61000001E-02  -1.98752250E-08
   3.61500010E-02  -1.97687644E-08
   3.62000018E-02  -1.96512193E-08
   3.62499990E-02  -1.95224352E-08
   3.62999998E-02  -1.93822718E-08
   3.63500006E-02  -1.92305869E-08
   3.64000015E-02  -1.90672349E-08
   3.64499986E-02  -1.88920772E-08
   3.64999995E-02  -1.87049842E-08
   3.65500003E-02  -1.85058173E-08
   3.66000012E-02  -1.82944522E-08
   3.66499983E-02  -1.80707733E-08
   3.66999991E-02  -1.78346511E-08
   3.67500000E-02  -1.75859665E-08
   3.68000008E-02  -1.73246146E-08
   3.68500017E-02  -1.70504819E-08
   3.68999988E-02  -1.67634671E-08
   3.69499996E-02  -1.64634653E-08
   3.70000005E-02  -1.61503806E-08
   3.70500013E-02  -1.58241278E-08
   3.70999984E-02  -1.54846198E-08
   3.71499993E-02  -1.51317785E-08
   3.72000001E-02  -1.47655257E-08
   3.72500010E-02  -1.43857877E-08
   3.73000018E-02  -1.39924987E-08
   3.73499990E-02  -1.35855984E-08
   3.73999998E-02  -1.31650317E-08
   3.74500006E-02  -1.27307436E-08
   3.75000015E-02  -1.22826922E-08
   3.75499986E-02  -1.18208430E-08
   3.75999995E-02  -1.13451613E-08
   3.76500003E-02  -1.08556160E-08
   3.77000012E-02  -1.03521884E-08
   3.77499983E-02  -9.83486714E-09
   3.77999991E-02  -9.30364319E-09
   3.78500000E-02  -8.75851036E-09
   3.79000008E-02  -8.19947132E-09
   3.79500017E-02  -7.62654029E-09
   3.79999988E-02  -7.03973901E-09
   3.80499996E-02  -6.43909237E-09
   3.81000005E-02  -5.82462034E-09
   3.81500013E-02  -5.19635490E-09
   3.81999984E-02  -4.55434979E-09
   3.82499993E-02  -3.89866051E-09
   3.83000001E-02  -3.22935345E-09
   3.83500010E-02  -2.54650123E-09
   3.84000018E-02  -1.85016169E-09
   3.84499989E-02  -1.14040810E-09
   3.84999998E-02  -4.17340745E-10
   3.85500006E-02   3.18956445E-10
   3.86000015E-02   1.06837705E-09
   3.86499986E-02   1.83079996E-09
   3.86999995E-02   2.60610045E-09
   3.87500003E-02   3.39415118E-09
   3.88000011E-02   4.19483426E-09
   3.88499983E-02   5.00801001E-09
   3.88999991E-02   5.83352122E-09
   3.89500000E-02   6.67119959E-09
   3.90000008E-02   7.52088347E-09
   3.90500017E-02   8.38240499E-09
   3.90999988E-02   9.25557853E-09
   3.91499996E-02   1.01402158E-08
   3.92000005E-02   1.10361178E-08
   3.92500013E-02   1.19430723E-08
   3.92999984E-02   1.28608697E-08
   3.93499993E-02   1.37892870E-08
   3.94000001E-02   1.47280899E-08
   3.94500010E-02   1.56770383E-08
   3.95000018E-02   1.66358767E-08
   3.95499989E-02   1.76043482E-08
   3.95999998E-02   1.85821971E-08
   3.96500006E-02   1.95691481E-08
   3.97000015E-02   2.05649240E-08
   3.97499986E-02   2.15692317E-08
   3.97999994E-02   2.25817764E-08
   3.98500003E-02   2.36022419E-08
   3.99000011E-02   2.46303173E-08
   3.99499983E-02   2.56656829E-08
   3.99999991E-02   2.67080065E-08
   4.00500000E-02   2.77569541E-08
   4.01000008E-02   2.88121811E-08
   4.01500016E-02   2.98733269E-08
   4.01999988E-02   3.09400292E-08
   4.02499996E-02   3.20119220E-08
   4.03000005E-02   3.30886181E-08
   4.03500013E-02   3.41697373E-08
   4.03999984E-02   3.52548746E-08
   4.04499993E-02   3.63436463E-08
   4.05000001E-02   3.74356333E-08
   4.05500010E-02   3.85304268E-08
   4.06000018E-02   3.96275972E-08
   4.06499989E-02   4.07267109E-08
   4.06999998E-02   4.18273345E-08
   4.07500006E-02   4.29290239E-08
   4.08000015E-02   4.40313279E-08
   4.08499986E-02   4.51337883E-08
   4.08999994E-02   4.62359253E-08
   4.09500003E-02   4.73372808E-08
   4.10000011E-02   4.84373786E-08
   4.10499983E-02   4.95357249E-08
   4.10999991E-02   5.06318223E-08
   4.11499999E-02   5.17251877E-08
   4.12000008E-02   5.28153130E-08
   4.12500016E-02   5.39016902E-08
   4.12999988E-02   5.49837971E-08
   4.13499996E-02   5.60611078E-08
   4.14000005E-02   5.71331071E-08
   4.14500013E-02   5.81992623E-08
   4.14999984E-02   5.92590332E-08
   4.15499993E-02   6.03118835E-08
   4.16000001E-02   6.13572695E-08
   4.16500010E-02   6.23946335E-08
   4.17000018E-02   6.34234283E-08
   4.17499989E-02   6.44430926E-08
   4.17999998E-02   6.54530652E-08
   4.18500006E-02   6.64527846E-08
   4.19000015E-02   6.74416825E-08
   4.19499986E-02   6.84191832E-08
   4.19999994E-02   6.93847184E-08
   4.20500003E-02   7.03376912E-08
   4.21000011E-02   7.12775332E-08
   4.21499982E-02   7.22036617E-08
   4.21999991E-02   7.31154728E-08
   4.22499999E-02   7.40123909E-08
   4.23000008E-02   7.48938405E-08
   4.23500016E-02   7.57592105E-08
   4.23999988E-02   7.66079040E-08
   4.24499996E-02   7.74393385E-08
   4.25000004E-02   7.82529241E-08
   4.25500013E-02   7.90480428E-08
   4.25999984E-02   7.98241260E-08
   4.26499993E-02   8.05805698E-08
   4.27000001E-02   8.13167773E-08
   4.27500010E-02   8.20321517E-08
   4.28000018E-02   8.27260962E-08