   0.00000000       0.00000000    
   4.99999987E-05   0.00000000    
   9.99999975E-05   0.00000000    
   1.50000007E-04   0.00000000    
   1.99999995E-04   4.43076023E-26
   2.50000012E-04   4.53441883E-25
   3.00000014E-04   2.50499664E-24
   3.49999988E-04   9.96332822E-24
   3.99999990E-04   3.20166077E-23
   4.49999992E-04   8.83594328E-23
   5.00000024E-04   2.17346376E-22
   5.49999997E-04   4.88357104E-22
   6.00000028E-04   1.01976062E-21
   6.50000002E-04   2.00408495E-21
   6.99999975E-04   3.74228707E-21
   7.50000007E-04   6.68931672E-21
   7.99999980E-04   1.15134672E-20
   8.50000011E-04   1.91722452E-20
   8.99999985E-04   3.10078411E-20
   9.50000016E-04   4.88658756E-20
   1.00000005E-03   7.52411175E-20
   1.04999996E-03   1.13454581E-19
   1.09999999E-03   1.67865694E-19
   1.15000003E-03   2.44125349E-19
   1.20000006E-03   3.49476106E-19
   1.24999997E-03   4.93103663E-19
   1.30000000E-03   6.86542693E-19
   1.35000004E-03   9.44151189E-19
   1.39999995E-03   1.28365982E-18
   1.44999998E-03   1.72678864E-18
   1.50000001E-03   2.29995853E-18
   1.55000004E-03   3.03510661E-18
   1.59999996E-03   3.97058192E-18
   1.64999999E-03   5.15217385E-18
   1.70000002E-03   6.63425404E-18
   1.75000005E-03   8.48104891E-18
   1.79999997E-03   1.07680503E-17
   1.85000000E-03   1.35836068E-17
   1.90000003E-03   1.70306545E-17
   1.94999995E-03   2.12286160E-17
   2.00000009E-03   2.63155154E-17
   2.05000001E-03   3.24502590E-17
   2.09999993E-03   3.98151807E-17
   2.15000007E-03   4.86187482E-17
   2.19999999E-03   5.90984681E-17
   2.24999990E-03   7.15242231E-17
   2.30000005E-03   8.62017556E-17
   2.34999997E-03   1.03476344E-16
   2.40000011E-03   1.23737021E-16
   2.45000003E-03   1.47420751E-16
   2.49999994E-03   1.75016992E-16
   2.55000009E-03   2.07073403E-16
   2.60000001E-03   2.44200763E-16
   2.64999992E-03   2.87078074E-16
   2.70000007E-03   3.36459645E-16
   2.74999999E-03   3.93181736E-16
   2.79999990E-03   4.58168486E-16
   2.85000005E-03   5.32439511E-16
   2.89999996E-03   6.17118136E-16
   2.95000011E-03   7.13439334E-16
   3.00000003E-03   8.22759365E-16
   3.04999994E-03   9.46563871E-16
   3.10000009E-03   1.08647603E-15
   3.15000000E-03   1.24426895E-15
   3.19999992E-03   1.42187630E-15
   3.25000007E-03   1.62140360E-15
   3.29999998E-03   1.84513930E-15
   3.34999990E-03   2.09556481E-15
   3.40000005E-03   2.37536965E-15
   3.44999996E-03   2.68746825E-15
   3.50000011E-03   3.03500778E-15
   3.55000002E-03   3.42138270E-15
   3.59999994E-03   3.85025518E-15
   3.65000009E-03   4.32556983E-15
   3.70000000E-03   4.85156374E-15
   3.74999992E-03   5.43278928E-15
   3.80000006E-03   6.07413002E-15
   3.84999998E-03   6.78081723E-15
   3.89999989E-03   7.55844853E-15
   3.94999981E-03   8.41301160E-15
   4.00000019E-03   9.35090069E-15
   4.05000011E-03   1.03789327E-14
   4.10000002E-03   1.15043659E-14
   4.14999994E-03   1.27349371E-14
   4.19999985E-03   1.40788717E-14
   4.25000023E-03   1.55449045E-14
   4.30000015E-03   1.71423205E-14
   4.35000006E-03   1.88809573E-14
   4.39999998E-03   2.07712181E-14
   4.44999989E-03   2.28241261E-14
   4.49999981E-03   2.50513670E-14
   4.55000019E-03   2.74652500E-14
   4.60000010E-03   3.00787464E-14
   4.65000002E-03   3.29055698E-14
   4.69999993E-03   3.59601841E-14
   4.74999985E-03   3.92577816E-14
   4.80000023E-03   4.28143781E-14
   4.85000014E-03   4.66468057E-14
   4.90000006E-03   5.07727032E-14
   4.94999997E-03   5.52105867E-14
   4.99999989E-03   5.99798531E-14
   5.04999980E-03   6.51008449E-14
   5.10000018E-03   7.05948903E-14
   5.15000010E-03   7.64842562E-14
   5.20000001E-03   8.27922122E-14
   5.24999993E-03   8.95430580E-14
   5.29999984E-03   9.67621911E-14
   5.35000023E-03   1.04476046E-13
   5.40000014E-03   1.12712154E-13
   5.45000006E-03   1.21499219E-13
   5.49999997E-03   1.30867078E-13
   5.54999989E-03   1.40846766E-13
   5.59999980E-03   1.51470470E-13
   5.65000018E-03   1.62771665E-13
   5.70000010E-03   1.74785140E-13
   5.75000001E-03   1.87546769E-13
   5.79999993E-03   2.01093767E-13
   5.84999984E-03   2.15464731E-13
   5.90000022E-03   2.30699466E-13
   5.95000014E-03   2.46839089E-13
   6.00000005E-03   2.63926061E-13
   6.04999997E-03   2.82004211E-13
   6.09999988E-03   3.01118830E-13
   6.14999980E-03   3.21316622E-13
   6.20000018E-03   3.42645346E-13
   6.25000009E-03   3.65154277E-13
   6.30000001E-03   3.88894185E-13
   6.34999992E-03   4.13917273E-13
   6.39999984E-03   4.40277101E-13
   6.45000022E-03   4.68028448E-13
   6.50000013E-03   4.97227259E-13
   6.55000005E-03   5.27930943E-13
   6.59999996E-03   5.60198372E-13
   6.64999988E-03   5.94089285E-13
   6.69999979E-03   6.29665211E-13
   6.75000018E-03   6.66988817E-13
   6.80000009E-03   7.06123636E-13
   6.85000001E-03   7.47134722E-13
   6.89999992E-03   7.90088643E-13
   6.94999984E-03   8.35052513E-13
   7.00000022E-03   8.82094202E-13
   7.05000013E-03   9.31282937E-13
   7.10000005E-03   9.82689082E-13
   7.14999996E-03   1.03638354E-12
   7.19999988E-03   1.09243810E-12
   7.24999979E-03   1.15092560E-12
   7.30000017E-03   1.21191956E-12
   7.35000009E-03   1.27549349E-12
   7.40000000E-03   1.34172122E-12
   7.44999992E-03   1.41067854E-12
   7.49999983E-03   1.48244069E-12
   7.55000021E-03   1.55708194E-12
   7.60000013E-03   1.63467796E-12
   7.65000004E-03   1.71530487E-12
   7.69999996E-03   1.79903748E-12
   7.74999987E-03   1.88594973E-12
   7.79999979E-03   1.97611697E-12
   7.84999970E-03   2.06961358E-12
   7.89999962E-03   2.16651198E-12
   7.95000046E-03   2.26688546E-12
   8.00000038E-03   2.37080472E-12
   8.05000030E-03   2.47833958E-12
   8.10000021E-03   2.58955943E-12
   8.15000013E-03   2.70453169E-12
   8.20000004E-03   2.82332231E-12
   8.24999996E-03   2.94599371E-12
   8.29999987E-03   3.07260792E-12
   8.34999979E-03   3.20322566E-12
   8.39999970E-03   3.33790265E-12
   8.44999962E-03   3.47669289E-12
   8.50000046E-03   3.61964603E-12
   8.55000038E-03   3.76681152E-12
   8.60000029E-03   3.91823423E-12
   8.65000021E-03   4.07395341E-12
   8.70000012E-03   4.23400637E-12
   8.75000004E-03   4.39842347E-12
   8.79999995E-03   4.56723331E-12
   8.84999987E-03   4.74045759E-12
   8.89999978E-03   4.91811279E-12
   8.94999970E-03   5.10021279E-12
   8.99999961E-03   5.28676191E-12
   9.05000046E-03   5.47776104E-12
   9.10000037E-03   5.67320453E-12
   9.15000029E-03   5.87308023E-12
   9.20000020E-03   6.07737081E-12
   9.25000012E-03   6.28604677E-12
   9.30000003E-03   6.49907168E-12
   9.34999995E-03   6.71640738E-12
   9.39999986E-03   6.93800095E-12
   9.44999978E-03   7.16379083E-12
   9.49999969E-03   7.39371151E-12
   9.54999961E-03   7.62768321E-12
   9.60000046E-03   7.86561441E-12
   9.65000037E-03   8.10740797E-12
   9.70000029E-03   8.35295461E-12
   9.75000020E-03   8.60213810E-12
   9.80000012E-03   8.85482833E-12
   9.85000003E-03   9.11088305E-12
   9.89999995E-03   9.37014355E-12
   9.94999986E-03   9.63244502E-12
   9.99999978E-03   9.89760964E-12
   1.00499997E-02   1.01654397E-11
   1.00999996E-02   1.04357321E-11
   1.01500005E-02   1.07082641E-11
   1.02000004E-02   1.09827989E-11
   1.02500003E-02   1.12590874E-11
   1.03000002E-02   1.15368617E-11
   1.03500001E-02   1.18158374E-11
   1.04000000E-02   1.20957211E-11
   1.04499999E-02   1.23762051E-11
   1.04999999E-02   1.26569562E-11
   1.05499998E-02   1.29376284E-11
   1.05999997E-02   1.32178556E-11
   1.06499996E-02   1.34972563E-11
   1.07000005E-02   1.37754348E-11
   1.07500004E-02   1.40519697E-11
   1.08000003E-02   1.43264220E-11
   1.08500002E-02   1.45983434E-11
   1.09000001E-02   1.48672550E-11
   1.09500000E-02   1.51326607E-11
   1.09999999E-02   1.53940437E-11
   1.10499999E-02   1.56508730E-11
   1.10999998E-02   1.59025865E-11
   1.11499997E-02   1.61486154E-11
   1.11999996E-02   1.63883646E-11
   1.12500004E-02   1.66212061E-11
   1.13000004E-02   1.68465051E-11
   1.13500003E-02   1.70636023E-11
   1.14000002E-02   1.72718194E-11
   1.14500001E-02   1.74704574E-11
   1.15000000E-02   1.76587946E-11
   1.15499999E-02   1.78360677E-11
   1.15999999E-02   1.80015100E-11
   1.16499998E-02   1.81543322E-11
   1.16999997E-02   1.82937294E-11
   1.17499996E-02   1.84188723E-11
   1.18000004E-02   1.85288816E-11
   1.18500004E-02   1.86228723E-11
   1.19000003E-02   1.86999617E-11
   1.19500002E-02   1.87592320E-11
   1.20000001E-02   1.87997222E-11
   1.20500000E-02   1.88204730E-11
   1.20999999E-02   1.88205094E-11
   1.21499998E-02   1.87988184E-11
   1.21999998E-02   1.87543696E-11
   1.22499997E-02   1.86861100E-11
   1.22999996E-02   1.85929779E-11
   1.23500004E-02   1.84738856E-11
   1.24000004E-02   1.83277248E-11
   1.24500003E-02   1.81533781E-11
   1.25000002E-02   1.79496955E-11
   1.25500001E-02   1.77155183E-11
   1.26000000E-02   1.74496771E-11
   1.26499999E-02   1.71509560E-11
   1.26999998E-02   1.68181719E-11
   1.27499998E-02   1.64501086E-11
   1.27999997E-02   1.60455052E-11
   1.28499996E-02   1.56031195E-11
   1.29000004E-02   1.51216938E-11
   1.29500004E-02   1.45999532E-11
   1.30000003E-02   1.40366113E-11
   1.30500002E-02   1.34303775E-11
   1.31000001E-02   1.27799308E-11
   1.31500000E-02   1.20839692E-11
   1.31999999E-02   1.13411945E-11
   1.32499998E-02   1.05502855E-11
   1.32999998E-02   9.70991777E-12
   1.33499997E-02   8.81876690E-12
   1.33999996E-02   7.87551448E-12
   1.34500004E-02   6.87881392E-12
   1.35000004E-02   5.82734685E-12
   1.35500003E-02   4.71981221E-12
   1.36000002E-02   3.55490247E-12
   1.36500001E-02   2.33131223E-12
   1.37000000E-02   1.04771552E-12
   1.37499999E-02  -2.97184071E-13
   1.37999998E-02  -1.70461464E-12
   1.38499998E-02  -3.17584349E-12
   1.38999997E-02  -4.71213823E-12
   1.39499996E-02  -6.31470874E-12
   1.40000004E-02  -7.98477083E-12
   1.40500003E-02  -9.72351106E-12
   1.41000003E-02  -1.15321138E-11
   1.41500002E-02  -1.34117170E-11
   1.42000001E-02  -1.53634085E-11
   1.42500000E-02  -1.73882506E-11
   1.42999999E-02  -1.94872746E-11
   1.43499998E-02  -2.16615111E-11
   1.43999998E-02  -2.39119124E-11
   1.44499997E-02  -2.62394152E-11
   1.44999996E-02  -2.86448990E-11
   1.45500004E-02  -3.11291826E-11
   1.46000003E-02  -3.36930692E-11
   1.46500003E-02  -3.63373151E-11
   1.47000002E-02  -3.90626177E-11
   1.47500001E-02  -4.18695703E-11
   1.48000000E-02  -4.47587731E-11
   1.48499999E-02  -4.77307395E-11
   1.48999998E-02  -5.07858755E-11
   1.49499997E-02  -5.39245905E-11
   1.49999997E-02  -5.71471932E-11
   1.50499996E-02  -6.04539127E-11
   1.51000004E-02  -6.38448877E-11
   1.51500003E-02  -6.73202466E-11
   1.52000003E-02  -7.08800449E-11
   1.52500002E-02  -7.45241438E-11
   1.53000001E-02  -7.82523768E-11
   1.53500000E-02  -8.20645149E-11
   1.53999999E-02  -8.59601487E-11
   1.54499998E-02  -8.99388064E-11
   1.54999997E-02  -9.39999328E-11
   1.55499997E-02  -9.81429105E-11
   1.55999996E-02  -1.02366955E-10
   1.56500004E-02  -1.06671158E-10
   1.56999994E-02  -1.11054568E-10
   1.57500003E-02  -1.15516097E-10
   1.57999992E-02  -1.20054522E-10
   1.58500001E-02  -1.24668539E-10
   1.59000009E-02  -1.29356720E-10
   1.59499999E-02  -1.34117481E-10
   1.60000008E-02  -1.38949074E-10
   1.60499997E-02  -1.43849599E-10
   1.61000006E-02  -1.48817139E-10
   1.61499996E-02  -1.53849530E-10
   1.62000004E-02  -1.58944496E-10
   1.62499994E-02  -1.64099775E-10
   1.63000003E-02  -1.69312744E-10
   1.63499992E-02  -1.74580711E-10
   1.64000001E-02  -1.79900872E-10
   1.64500009E-02  -1.85270202E-10
   1.64999999E-02  -1.90685537E-10
   1.65500008E-02  -1.96143574E-10
   1.65999997E-02  -2.01640843E-10
   1.66500006E-02  -2.07173750E-10
   1.66999996E-02  -2.12738535E-10
   1.67500004E-02  -2.18331214E-10
   1.67999994E-02  -2.23947680E-10
   1.68500002E-02  -2.29583713E-10
   1.68999992E-02  -2.35234804E-10
   1.69500001E-02  -2.40896331E-10
   1.70000009E-02  -2.46563575E-10
   1.70499999E-02  -2.52231458E-10
   1.71000008E-02  -2.57894928E-10
   1.71499997E-02  -2.63548600E-10
   1.72000006E-02  -2.69187006E-10
   1.72499996E-02  -2.74804512E-10
   1.73000004E-02  -2.80395235E-10
   1.73499994E-02  -2.85953178E-10
   1.74000002E-02  -2.91472152E-10
   1.74499992E-02  -2.96945801E-10
   1.75000001E-02  -3.02367548E-10
   1.75500009E-02  -3.07730785E-10
   1.75999999E-02  -3.13028520E-10
   1.76500008E-02  -3.18253646E-10
   1.76999997E-02  -3.23399002E-10
   1.77500006E-02  -3.28457206E-10
   1.77999996E-02  -3.33420597E-10
   1.78500004E-02  -3.38281431E-10
   1.78999994E-02  -3.43031797E-10
   1.79500002E-02  -3.47663703E-10
   1.79999992E-02  -3.52168850E-10
   1.80500001E-02  -3.56538826E-10
   1.81000009E-02  -3.60765057E-10
   1.81499999E-02  -3.64838909E-10
   1.82000007E-02  -3.68751502E-10
   1.82499997E-02  -3.72493869E-10
   1.83000006E-02  -3.76056852E-10
   1.83499996E-02  -3.79431153E-10
   1.84000004E-02  -3.82607307E-10
   1.84499994E-02  -3.85575821E-10
   1.85000002E-02  -3.88327065E-10
   1.85499992E-02  -3.90851324E-10
   1.86000001E-02  -3.93138522E-10
   1.86500009E-02  -3.95178751E-10
   1.86999999E-02  -3.96961908E-10
   1.87500007E-02  -3.98477806E-10
   1.87999997E-02  -3.99716121E-10
   1.88500006E-02  -4.00666500E-10
   1.88999996E-02  -4.01318395E-10
   1.89500004E-02  -4.01661371E-10
   1.89999994E-02  -4.01684852E-10
   1.90500002E-02  -4.01378208E-10
   1.90999992E-02  -4.00730810E-10
   1.91500001E-02  -3.99731859E-10
   1.92000009E-02  -3.98370614E-10
   1.92499999E-02  -3.96636363E-10
   1.93000007E-02  -3.94518307E-10
   1.93499997E-02  -3.92005678E-10
   1.94000006E-02  -3.89087790E-10
   1.94499996E-02  -3.85753846E-10
   1.95000004E-02  -3.81993159E-10
   1.95499994E-02  -3.77795073E-10
   1.96000002E-02  -3.73148984E-10
   1.96499992E-02  -3.68044345E-10
   1.97000001E-02  -3.62470665E-10
   1.97500009E-02  -3.56417645E-10
   1.97999999E-02  -3.49874935E-10
   1.98500007E-02  -3.42832401E-10
   1.98999997E-02  -3.35279970E-10
   1.99500006E-02  -3.27207733E-10
   1.99999996E-02  -3.18605919E-10
   2.00500004E-02  -3.09464954E-10
   2.00999994E-02  -2.99775399E-10
   2.01500002E-02  -2.89527957E-10
   2.01999992E-02  -2.78713608E-10
   2.02500001E-02  -2.67323580E-10
   2.03000009E-02  -2.55349297E-10
   2.03499999E-02  -2.42782405E-10
   2.04000007E-02  -2.29614772E-10
   2.04499997E-02  -2.15838639E-10
   2.05000006E-02  -2.01446540E-10
   2.05499995E-02  -1.86431218E-10
   2.06000004E-02  -1.70785802E-10
   2.06499994E-02  -1.54503715E-10
   2.07000002E-02  -1.37578768E-10
   2.07499992E-02  -1.20005117E-10
   2.08000001E-02  -1.01777274E-10
   2.08500009E-02  -8.28902086E-11
   2.08999999E-02  -6.33393199E-11
   2.09500007E-02  -4.31203163E-11
   2.09999997E-02  -2.22294405E-11
   2.10500006E-02  -6.63491397E-13
   2.10999995E-02   2.15804319E-11
   2.11500004E-02   4.45047853E-11
   2.11999994E-02   6.81113291E-11
   2.12500002E-02   9.24012811E-11
   2.12999992E-02   1.17375401E-10
   2.13500001E-02   1.43033932E-10
   2.14000009E-02   1.69376527E-10
   2.14499999E-02   1.96402256E-10
   2.15000007E-02   2.24109495E-10
   2.15499997E-02   2.52496191E-10
   2.16000006E-02   2.81559553E-10
   2.16499995E-02   3.11296044E-10
   2.17000004E-02   3.41701500E-10
   2.17499994E-02   3.72771175E-10
   2.18000002E-02   4.04499684E-10
   2.18499992E-02   4.36880754E-10
   2.19000001E-02   4.69907446E-10
   2.19500009E-02   5.03572017E-10
   2.19999999E-02   5.37866085E-10
   2.20500007E-02   5.72780545E-10
   2.20999997E-02   6.08305406E-10
   2.21500006E-02   6.44429954E-10
   2.21999995E-02   6.81142753E-10
   2.22500004E-02   7.18431481E-10
   2.22999994E-02   7.56283147E-10
   2.23500002E-02   7.94683541E-10
   2.23999992E-02   8.33617786E-10
   2.24500000E-02   8.73070116E-10
   2.25000009E-02   9.13023879E-10
   2.25499999E-02   9.53461976E-10
   2.26000007E-02   9.94366256E-10
   2.26499997E-02   1.03571729E-09
   2.27000006E-02   1.07749509E-09
   2.27499995E-02   1.11967879E-09
   2.28000004E-02   1.16224630E-09
   2.28499994E-02   1.20517485E-09
   2.29000002E-02   1.24844080E-09
   2.29499992E-02   1.29201971E-09
   2.30000000E-02   1.33588585E-09
   2.30500009E-02   1.38001266E-09
   2.30999999E-02   1.42437273E-09
   2.31500007E-02   1.46893842E-09
   2.31999997E-02   1.51368018E-09
   2.32500006E-02   1.55856728E-09
   2.32999995E-02   1.60356928E-09
   2.33500004E-02   1.64865410E-09
   2.33999994E-02   1.69378866E-09
   2.34500002E-02   1.73893921E-09
   2.34999992E-02   1.78407078E-09
   2.35500000E-02   1.82914817E-09
   2.36000009E-02   1.87413485E-09
   2.36499999E-02   1.91899319E-09
   2.37000007E-02   1.96368477E-09
   2.37499997E-02   2.00817030E-09
   2.38000005E-02   2.05241024E-09
   2.38499995E-02   2.09636331E-09
   2.39000004E-02   2.13998752E-09
   2.39499994E-02   2.18324092E-09
   2.40000002E-02   2.22608043E-09
   2.40499992E-02   2.26846142E-09
   2.41000000E-02   2.31033903E-09
   2.41500009E-02   2.35166753E-09
   2.41999999E-02   2.39240050E-09
   2.42500007E-02   2.43249043E-09
   2.42999997E-02   2.47189047E-09
   2.43500005E-02   2.51055199E-09
   2.43999995E-02   2.54842591E-09
   2.44500004E-02   2.58546273E-09
   2.44999994E-02   2.62161270E-09
   2.45500002E-02   2.65682432E-09
   2.45999992E-02   2.69104583E-09
   2.46500000E-02   2.72422618E-09
   2.47000009E-02   2.75631296E-09
   2.47499999E-02   2.78725354E-09
   2.48000007E-02   2.81699442E-09
   2.48499997E-02   2.84548229E-09
   2.49000005E-02   2.87266366E-09
   2.49499995E-02   2.89848390E-09
   2.50000004E-02   2.92288860E-09
   2.50499994E-02   2.94582336E-09
   2.51000002E-02   2.96723357E-09
   2.51499992E-02   2.98706437E-09
   2.52000000E-02   3.00526093E-09
   2.52500009E-02   3.02176772E-09
   2.52999999E-02   3.03653058E-09
   2.53500007E-02   3.04949399E-09
   2.53999997E-02   3.06060244E-09
   2.54500005E-02   3.06980175E-09
   2.54999995E-02   3.07703818E-09
   2.55500004E-02   3.08225667E-09
   2.55999994E-02   3.08540371E-09
   2.56500002E-02   3.08642556E-09
   2.56999992E-02   3.08526871E-09
   2.57500000E-02   3.08188142E-09
   2.58000009E-02   3.07621195E-09
   2.58499999E-02   3.06820769E-09
   2.59000007E-02   3.05781667E-09
   2.59499997E-02   3.04498959E-09
   2.60000005E-02   3.02967695E-09
   2.60499995E-02   3.01182967E-09
   2.61000004E-02   2.99140024E-09
   2.61499994E-02   2.96834179E-09
   2.62000002E-02   2.94260794E-09
   2.62499992E-02   2.91415425E-09
   2.63000000E-02   2.88293767E-09
   2.63500009E-02   2.84891599E-09
   2.63999999E-02   2.81204726E-09
   2.64500007E-02   2.77229129E-09
   2.64999997E-02   2.72961054E-09
   2.65500005E-02   2.68396816E-09
   2.65999995E-02   2.63532773E-09
   2.66500004E-02   2.58365662E-09
   2.66999993E-02   2.52892085E-09
   2.67500002E-02   2.47108956E-09
   2.67999992E-02   2.41013476E-09
   2.68500000E-02   2.34603048E-09
   2.69000009E-02   2.27875185E-09
   2.69499999E-02   2.20827623E-09
   2.70000007E-02   2.13458229E-09
   2.70499997E-02   2.05765027E-09
   2.71000005E-02   1.97746464E-09
   2.71499995E-02   1.89401073E-09
   2.72000004E-02   1.80727699E-09
   2.72499993E-02   1.71725478E-09
   2.73000002E-02   1.62393743E-09
   2.73499992E-02   1.52731905E-09
   2.74000000E-02   1.42739742E-09
   2.74500009E-02   1.32417444E-09
   2.74999999E-02   1.21765342E-09
   2.75500007E-02   1.10784160E-09
   2.75999997E-02   9.94747729E-10
   2.76500005E-02   8.78383866E-10
   2.76999995E-02   7.58766494E-10
   2.77500004E-02   6.35912656E-10
   2.77999993E-02   5.09843556E-10
   2.78500002E-02   3.80584703E-10
   2.78999992E-02   2.48163934E-10
   2.79500000E-02   1.12612683E-10
   2.80000009E-02  -2.60346935E-11
   2.80499998E-02  -1.67741460E-10
   2.81000007E-02  -3.12466608E-10
   2.81499997E-02  -4.60163657E-10
   2.82000005E-02  -6.10784534E-10
   2.82499995E-02  -7.64278307E-10
   2.83000004E-02  -9.20589160E-10
   2.83499993E-02  -1.07965858E-09
   2.84000002E-02  -1.24142363E-09
   2.84499992E-02  -1.40581680E-09
   2.85000000E-02  -1.57276758E-09
   2.85500009E-02  -1.74220249E-09
   2.85999998E-02  -1.91404381E-09
   2.86500007E-02  -2.08820827E-09
   2.86999997E-02  -2.26461028E-09
   2.87500005E-02  -2.44316078E-09
   2.87999995E-02  -2.62376565E-09
   2.88500004E-02  -2.80632739E-09
   2.88999993E-02  -2.99074410E-09
   2.89500002E-02  -3.17690985E-09
   2.89999992E-02  -3.36471584E-09
   2.90500000E-02  -3.55404817E-09
   2.91000009E-02  -3.74478848E-09
   2.91499998E-02  -3.93681532E-09
   2.92000007E-02  -4.13000345E-09
   2.92499997E-02  -4.32422365E-09
   2.93000005E-02  -4.51934223E-09
   2.93499995E-02  -4.71522021E-09
   2.94000003E-02  -4.91171548E-09
   2.94499993E-02  -5.10868325E-09
   2.95000002E-02  -5.30597521E-09
   2.95499992E-02  -5.50343726E-09
   2.96000000E-02  -5.70091396E-09
   2.96500009E-02  -5.89824278E-09
   2.96999998E-02  -6.09525808E-09
   2.97500007E-02  -6.29179286E-09
   2.97999997E-02  -6.48767440E-09
   2.98500005E-02  -6.68272726E-09
   2.98999995E-02  -6.87677248E-09
   2.99500003E-02  -7.06962799E-09
   2.99999993E-02  -7.26110683E-09
   3.00500002E-02  -7.45101936E-09
   3.00999992E-02  -7.63917196E-09
   3.01500000E-02  -7.82536880E-09
   3.02000009E-02  -8.00941091E-09
   3.02499998E-02  -8.19109758E-09
   3.03000007E-02  -8.37022185E-09
   3.03499997E-02  -8.54657412E-09
   3.04000005E-02  -8.71994654E-09
   3.04499995E-02  -8.89012508E-09
   3.05000003E-02  -9.05689124E-09
   3.05499993E-02  -9.22002830E-09
   3.06000002E-02  -9.37931599E-09
   3.06499992E-02  -9.53452961E-09
   3.07000000E-02  -9.68544445E-09
   3.07500008E-02  -9.83183224E-09
   3.07999998E-02  -9.97346650E-09
   3.08500007E-02  -1.01101163E-08
   3.08999997E-02  -1.02415498E-08
   3.09500005E-02  -1.03675326E-08
   3.09999995E-02  -1.04878293E-08
   3.10500003E-02  -1.06022053E-08
   3.10999993E-02  -1.07104245E-08
   3.11500002E-02  -1.08122489E-08
   3.11999992E-02  -1.09074403E-08
   3.12500000E-02  -1.09957616E-08
   3.13000008E-02  -1.10769740E-08
   3.13500017E-02  -1.11508376E-08
   3.13999988E-02  -1.12171152E-08
   3.14499997E-02  -1.12755680E-08
   3.15000005E-02  -1.13259615E-08
   3.15500014E-02  -1.13680567E-08
   3.15999985E-02  -1.14016192E-08
   3.16499993E-02  -1.14264127E-08
   3.17000002E-02  -1.14422054E-08
   3.17500010E-02  -1.14487664E-08
   3.18000019E-02  -1.14458665E-08
   3.18499990E-02  -1.14332765E-08
   3.18999998E-02  -1.14107728E-08
   3.19500007E-02  -1.13781322E-08
   3.20000015E-02  -1.13351355E-08
   3.20499986E-02  -1.12815659E-08
   3.20999995E-02  -1.12172085E-08
   3.21500003E-02  -1.11418528E-08
   3.22000012E-02  -1.10552927E-08
   3.22499983E-02  -1.09573266E-08
   3.22999991E-02  -1.08477565E-08
   3.23500000E-02  -1.07263869E-08
   3.24000008E-02  -1.05930296E-08
   3.24500017E-02  -1.04474998E-08
   3.24999988E-02  -1.02896207E-08
   3.25499997E-02  -1.01192166E-08
   3.26000005E-02  -9.93612037E-09
   3.26500013E-02  -9.74017045E-09
   3.26999985E-02  -9.53121138E-09
   3.27499993E-02  -9.30909394E-09
   3.28000002E-02  -9.07367781E-09
   3.28500010E-02  -8.82482620E-09
   3.29000019E-02  -8.56241211E-09
   3.29499990E-02  -8.28631475E-09
   3.29999998E-02  -7.99642397E-09
   3.30500007E-02  -7.69263409E-09
   3.31000015E-02  -7.37485051E-09
   3.31499986E-02  -7.04298708E-09
   3.31999995E-02  -6.69696476E-09
   3.32500003E-02  -6.33671604E-09
   3.33000012E-02  -5.96218186E-09
   3.33499983E-02  -5.57331292E-09
   3.33999991E-02  -5.17006926E-09
   3.34500000E-02  -4.75242379E-09
   3.35000008E-02  -4.32035696E-09
   3.35500017E-02  -3.87386079E-09
   3.35999988E-02  -3.41293815E-09
   3.36499996E-02  -2.93760438E-09
   3.37000005E-02  -2.44788678E-09
   3.37500013E-02  -1.94382443E-09
   3.37999985E-02  -1.42546563E-09
   3.38499993E-02  -8.92873664E-10
   3.39000002E-02  -3.46124712E-10
   3.39500010E-02   2.14695706E-10
   3.40000018E-02   7.89486920E-10
   3.40499990E-02   1.37813327E-09
   3.40999998E-02   1.98050842E-09
   3.41500007E-02   2.59647215E-09
   3.42000015E-02   3.22587024E-09
   3.42499986E-02   3.86853261E-09
   3.42999995E-02   4.52427562E-09
   3.43500003E-02   5.19290255E-09
   3.44000012E-02   5.87420290E-09
   3.44499983E-02   6.56794930E-09
   3.44999991E-02   7.27390015E-09
   3.45500000E-02   7.99179833E-09
   3.46000008E-02   8.72137118E-09
   3.46500017E-02   9.46233403E-09
   3.46999988E-02   1.02143831E-08
   3.47499996E-02   1.09772014E-08
   3.48000005E-02   1.17504566E-08
   3.48500013E-02   1.25337944E-08
   3.48999985E-02   1.33268516E-08
   3.49499993E-02   1.41292471E-08
   3.50000001E-02   1.49405803E-08
   3.50500010E-02   1.57604383E-08
   3.51000018E-02   1.65883911E-08
   3.51499990E-02   1.74239929E-08
   3.51999998E-02   1.82667836E-08
   3.52500007E-02   1.91162819E-08
   3.53000015E-02   1.99719903E-08
   3.53499986E-02   2.08334008E-08
   3.53999995E-02   2.16999805E-08
   3.54500003E-02   2.25711894E-08
   3.55000012E-02   2.34464625E-08
   3.55499983E-02   2.43252263E-08
   3.55999991E-02   2.52068855E-08
   3.56500000E-02   2.60908308E-08
   3.57000008E-02   2.69764406E-08
   3.57500017E-02   2.78630701E-08
   3.57999988E-02   2.87500619E-08
   3.58499996E-02   2.96367428E-08
   3.59000005E-02   3.05224255E-08
   3.59500013E-02   3.14064046E-08
   3.59999985E-02   3.22879643E-08
   3.60499993E-02   3.31663621E-08
   3.61000001E-02   3.40408519E-08
   3.61500010E-02   3.49106735E-08
   3.62000018E-02   3.57750451E-08
   3.62499990E-02   3.66331818E-08
   3.62999998E-02   3.74842735E-08
   3.63500006E-02   3.83275029E-08
   3.64000015E-02   3.91620389E-08
   3.64499986E-02   3.99870288E-08
   3.64999995E-02   4.08016092E-08
   3.65500003E-02   4.16049168E-08
   3.66000012E-02   4.23960671E-08
   3.66499983E-02   4.31741682E-08
   3.66999991E-02   4.39383037E-08
   3.67500000E-02   4.46875603E-08
   3.68000008E-02   4.54210110E-08
   3.68500017E-02   4.61377105E-08
   3.68999988E-02   4.68367176E-08
   3.69499996E-02   4.75170694E-08
   3.70000005E-02   4.81778066E-08
   3.70500013E-02   4.88179417E-08
   3.70999984E-02   4.94365047E-08
   3.71499993E-02   5.00325186E-08
   3.72000001E-02   5.06049780E-08
   3.72500010E-02   5.11528704E-08
   3.73000018E-02   5.16751903E-08
   3.73499990E-02   5.21709289E-08
   3.73999998E-02   5.26390735E-08
   3.74500006E-02   5.30786082E-08
   3.75000015E-02   5.34884919E-08
   3.75499986E-02   5.38677050E-08
   3.75999995E-02   5.42152243E-08
   3.76500003E-02   5.45300232E-08
   3.77000012E-02   5.48110677E-08
   3.77499983E-02   5.50573205E-08
   3.77999991E-02   5.52677548E-08
   3.78500000E-02   5.54413546E-08
   3.79000008E-02   5.55770896E-08
   3.79500017E-02   5.56739472E-08
   3.79999988E-02   5.57309079E-08
   3.80499996E-02   5.57469484E-08
   3.81000005E-02   5.57210669E-08
   3.81500013E-02   5.56522615E-08
   3.81999984E-02   5.55395374E-08
   3.82499993E-02   5.53819177E-08
   3.83000001E-02   5.51784254E-08
   3.83500010E-02   5.49280941E-08
   3.84000018E-02   5.46299646E-08
   3.84499989E-02   5.42830847E-08
   3.84999998E-02   5.38865343E-08
   3.85500006E-02   5.34393934E-08
   3.86000015E-02   5.29407593E-08
   3.86499986E-02   5.23897441E-08
   3.86999995E-02   5.17854701E-08
   3.87500003E-02   5.11270741E-08
   3.88000011E-02   5.04137105E-08
   3.88499983E-02   4.96445729E-08
   3.88999991E-02   4.88188618E-08
   3.89500000E-02   4.79357993E-08
   3.90000008E-02   4.69946109E-08
   3.90500017E-02   4.59945824E-08
   3.90999988E-02   4.49349997E-08
   3.91499996E-02   4.38151702E-08
   3.92000005E-02   4.26344293E-08
   3.92500013E-02   4.13921484E-08
   3.92999984E-02   4.00877234E-08
   3.93499993E-02   3.87205752E-08
   3.94000001E-02   3.72901461E-08
   3.94500010E-02   3.57959138E-08
   3.95000018E-02   3.42374058E-08
   3.95499989E-02   3.26141674E-08
   3.95999998E-02   3.09257722E-08
   3.96500006E-02   2.91718241E-08
   3.97000015E-02   2.73519731E-08
   3.97499986E-02   2.54659032E-08
   3.97999994E-02   2.35133406E-08
   3.98500003E-02   2.14940421E-08
   3.99000011E-02   1.94078069E-08
   3.99499983E-02   1.72544805E-08
   3.99999991E-02   1.50339403E-08
   4.00500000E-02   1.27461064E-08
   4.01000008E-02   1.03909459E-08
   4.01500016E-02   7.96847566E-09
   4.01999988E-02   5.47873791E-09
   4.02499996E-02   2.92183877E-09
   4.03000005E-02   2.97929598E-10
   4.03500013E-02  -2.39280662E-09
   4.03999984E-02  -5.15012921E-09
   4.04499993E-02  -7.97374256E-09
   4.05000001E-02  -1.08633023E-08
   4.05500010E-02  -1.38184211E-08
   4.06000018E-02  -1.68386638E-08
   4.06499989E-02  -1.99235348E-08
   4.06999998E-02  -2.30724879E-08
   4.07500006E-02  -2.62849191E-08
   4.08000015E-02  -2.95601801E-08
   4.08499986E-02  -3.28975567E-08
   4.08999994E-02  -3.62962709E-08
   4.09500003E-02  -3.97555127E-08
   4.10000011E-02  -4.32744152E-08
   4.10499983E-02  -4.68520192E-08
   4.10999991E-02  -5.04873476E-08
   4.11499999E-02  -5.41793419E-08
   4.12000008E-02  -5.79269006E-08
   4.12500016E-02  -6.17288407E-08
   4.12999988E-02  -6.55839258E-08
   4.13499996E-02  -6.94908664E-08
   4.14000005E-02  -7.34483123E-08
   4.14500013E-02  -7.74548568E-08
   4.14999984E-02  -8.15090075E-08
   4.15499993E-02  -8.56092299E-08
   4.16000001E-02  -8.97539323E-08
   4.16500010E-02  -9.39414448E-08
   4.17000018E-02  -9.81700552E-08
   4.17499989E-02  -1.02437980E-07
   4.17999998E-02  -1.06743357E-07
   4.18500006E-02  -1.11084290E-07
   4.19000015E-02  -1.15458811E-07
   4.19499986E-02  -1.19864879E-07
   4.19999994E-02  -1.24300357E-07
   4.20500003E-02  -1.28763119E-07
   4.21000011E-02  -1.33250907E-07
   4.21499982E-02  -1.37761447E-07
   4.21999991E-02  -1.42292393E-07
   4.22499999E-02  -1.46841344E-07
   4.23000008E-02  -1.51405800E-07
   4.23500016E-02  -1.55983216E-07
   4.23999988E-02  -1.60571020E-07
   4.24499996E-02  -1.65166540E-07
   4.25000004E-02  -1.69767048E-07
   4.25500013E-02  -1.74369774E-07
   4.25999984E-02  -1.78971874E-07
   4.26499993E-02  -1.83570464E-07
   4.27000001E-02  -1.88162574E-07
   4.27500010E-02  -1.92745219E-07
   4.28000018E-02  -1.97315316E-07