   0.00000000       0.00000000    
   4.99999987E-05   0.00000000    
   9.99999975E-05   0.00000000    
   1.50000007E-04   0.00000000    
   1.99999995E-04  -2.14304194E-23
   2.50000012E-04  -1.93868260E-22
   3.00000014E-04  -9.32376943E-22
   3.49999988E-04  -3.17127234E-21
   3.99999990E-04  -8.51955399E-21
   4.49999992E-04  -1.90619459E-20
   5.00000024E-04  -3.63475795E-20
   5.49999997E-04  -5.88855467E-20
   6.00000028E-04  -7.72059171E-20
   6.50000002E-04  -6.52430695E-20
   6.99999975E-04   3.35429946E-20
   7.50000007E-04   3.27267392E-19
   7.99999980E-04   1.00630626E-18
   8.50000011E-04   2.38641317E-18
   8.99999985E-04   4.96755583E-18
   9.50000016E-04   9.51227347E-18
   1.00000005E-03   1.71480133E-17
   1.04999996E-03   2.94982698E-17
   1.09999999E-03   4.88481684E-17
   1.15000003E-03   7.83507792E-17
   1.20000006E-03   1.22280853E-16
   1.24999997E-03   1.86343424E-16
   1.30000000E-03   2.78045924E-16
   1.35000004E-03   4.07142453E-16
   1.39999995E-03   5.86159981E-16
   1.44999998E-03   8.31016878E-16
   1.50000001E-03   1.16174582E-15
   1.55000004E-03   1.60333141E-15
   1.59999996E-03   2.18667612E-15
   1.64999999E-03   2.94970965E-15
   1.70000002E-03   3.93865577E-15
   1.75000005E-03   5.20946777E-15
   1.79999997E-03   6.82945259E-15
   1.85000000E-03   8.87910249E-15
   1.90000003E-03   1.14541445E-14
   1.94999995E-03   1.46678341E-14
   2.00000009E-03   1.86535103E-14
   2.05000001E-03   2.35674212E-14
   2.09999993E-03   2.95918617E-14
   2.15000007E-03   3.69386156E-14
   2.19999999E-03   4.58527767E-14
   2.24999990E-03   5.66168850E-14
   2.30000005E-03   6.95554928E-14
   2.34999997E-03   8.50401360E-14
   2.40000011E-03   1.03494721E-13
   2.45000003E-03   1.25401398E-13
   2.49999994E-03   1.51306932E-13
   2.55000009E-03   1.81829568E-13
   2.60000001E-03   2.17666407E-13
   2.64999992E-03   2.59601395E-13
   2.70000007E-03   3.08514011E-13
   2.74999999E-03   3.65388167E-13
   2.79999990E-03   4.31322377E-13
   2.85000005E-03   5.07540028E-13
   2.89999996E-03   5.95400790E-13
   2.95000011E-03   6.96412383E-13
   3.00000003E-03   8.12243393E-13
   3.04999994E-03   9.44736802E-13
   3.10000009E-03   1.09592402E-12
   3.15000000E-03   1.26804025E-12
   3.19999992E-03   1.46354066E-12
   3.25000007E-03   1.68511689E-12
   3.29999998E-03   1.93571504E-12
   3.34999990E-03   2.21855433E-12
   3.40000005E-03   2.53714671E-12
   3.44999996E-03   2.89531810E-12
   3.50000011E-03   3.29722924E-12
   3.55000002E-03   3.74739909E-12
   3.59999994E-03   4.25072868E-12
   3.65000009E-03   4.81252538E-12
   3.70000000E-03   5.43852810E-12
   3.74999992E-03   6.13493588E-12
   3.80000006E-03   6.90843606E-12
   3.84999998E-03   7.76623210E-12
   3.89999989E-03   8.71607560E-12
   3.94999981E-03   9.76629454E-12
   4.00000019E-03   1.09258314E-11
   4.05000011E-03   1.22042732E-11
   4.10000002E-03   1.36118833E-11
   4.14999994E-03   1.51596461E-11
   4.19999985E-03   1.68593004E-11
   4.25000023E-03   1.87233753E-11
   4.30000015E-03   2.07652315E-11
   4.35000006E-03   2.29990992E-11
   4.39999998E-03   2.54401274E-11
   4.44999989E-03   2.81044233E-11
   4.49999981E-03   3.10090946E-11
   4.55000019E-03   3.41722969E-11
   4.60000010E-03   3.76132701E-11
   4.65000002E-03   4.13524111E-11
   4.69999993E-03   4.54112858E-11
   4.74999985E-03   4.98127130E-11
   4.80000023E-03   5.45808052E-11
   4.85000014E-03   5.97409899E-11
   4.90000006E-03   6.53201035E-11
   4.94999997E-03   7.13464218E-11
   4.99999989E-03   7.78497197E-11
   5.04999980E-03   8.48613124E-11
   5.10000018E-03   9.24141458E-11
   5.15000010E-03   1.00542803E-10
   5.20000001E-03   1.09283596E-10
   5.24999993E-03   1.18674612E-10
   5.29999984E-03   1.28755770E-10
   5.35000023E-03   1.39568898E-10
   5.40000014E-03   1.51157697E-10
   5.45000006E-03   1.63567937E-10
   5.49999997E-03   1.76847439E-10
   5.54999989E-03   1.91046096E-10
   5.59999980E-03   2.06216058E-10
   5.65000018E-03   2.22411617E-10
   5.70000010E-03   2.39689435E-10
   5.75000001E-03   2.58108424E-10
   5.79999993E-03   2.77729978E-10
   5.84999984E-03   2.98617880E-10
   5.90000022E-03   3.20838550E-10
   5.95000014E-03   3.44460738E-10
   6.00000005E-03   3.69556052E-10
   6.04999997E-03   3.96198574E-10
   6.09999988E-03   4.24465213E-10
   6.14999980E-03   4.54435628E-10
   6.20000018E-03   4.86192253E-10
   6.25000009E-03   5.19820409E-10
   6.30000001E-03   5.55408219E-10
   6.34999992E-03   5.93046889E-10
   6.39999984E-03   6.32830399E-10
   6.45000022E-03   6.74855838E-10
   6.50000013E-03   7.19223403E-10
   6.55000005E-03   7.66036345E-10
   6.59999996E-03   8.15400858E-10
   6.64999988E-03   8.67426408E-10
   6.69999979E-03   9.22225740E-10
   6.75000018E-03   9.79914372E-10
   6.80000009E-03   1.04061137E-09
   6.85000001E-03   1.10443876E-09
   6.89999992E-03   1.17152177E-09
   6.94999984E-03   1.24198885E-09
   7.00000022E-03   1.31597155E-09
   7.05000013E-03   1.39360479E-09
   7.10000005E-03   1.47502643E-09
   7.14999996E-03   1.56037783E-09
   7.19999988E-03   1.64980296E-09
   7.24999979E-03   1.74344961E-09
   7.30000017E-03   1.84146798E-09
   7.35000009E-03   1.94401140E-09
   7.40000000E-03   2.05123651E-09
   7.44999992E-03   2.16330243E-09
   7.49999983E-03   2.28037145E-09
   7.55000021E-03   2.40260833E-09
   7.60000013E-03   2.53018118E-09
   7.65000004E-03   2.66326006E-09
   7.69999996E-03   2.80201795E-09
   7.74999987E-03   2.94663072E-09
   7.79999979E-03   3.09727555E-09
   7.84999970E-03   3.25413274E-09
   7.89999962E-03   3.41738460E-09
   7.95000046E-03   3.58721519E-09
   8.00000038E-03   3.76381015E-09
   8.05000030E-03   3.94735755E-09
   8.10000021E-03   4.13804635E-09
   8.15000013E-03   4.33606795E-09
   8.20000004E-03   4.54161420E-09
   8.24999996E-03   4.75487738E-09
   8.29999987E-03   4.97605157E-09
   8.34999979E-03   5.20533305E-09
   8.39999970E-03   5.44291590E-09
   8.44999962E-03   5.68899461E-09
   8.50000046E-03   5.94376592E-09
   8.55000038E-03   6.20742435E-09
   8.60000029E-03   6.48016485E-09
   8.65000021E-03   6.76218148E-09
   8.70000012E-03   7.05366698E-09
   8.75000004E-03   7.35481365E-09
   8.79999995E-03   7.66581199E-09
   8.84999987E-03   7.98684940E-09
   8.89999978E-03   8.31811242E-09
   8.94999970E-03   8.65978489E-09
   8.99999961E-03   9.01204800E-09
   9.05000046E-03   9.37507938E-09
   9.10000037E-03   9.74905223E-09
   9.15000029E-03   1.01341362E-08
   9.20000020E-03   1.05304991E-08
   9.25000012E-03   1.09383009E-08
   9.30000003E-03   1.13576988E-08
   9.34999995E-03   1.17888437E-08
   9.39999986E-03   1.22318795E-08
   9.44999978E-03   1.26869448E-08
   9.49999969E-03   1.31541711E-08
   9.54999961E-03   1.36336853E-08
   9.60000046E-03   1.41256020E-08
   9.65000037E-03   1.46300314E-08
   9.70000029E-03   1.51470694E-08
   9.75000020E-03   1.56768074E-08
   9.80000012E-03   1.62193317E-08
   9.85000003E-03   1.67747114E-08
   9.89999995E-03   1.73430035E-08
   9.94999986E-03   1.79242594E-08
   9.99999978E-03   1.85185165E-08
   1.00499997E-02   1.91257961E-08
   1.00999996E-02   1.97461159E-08
   1.01500005E-02   2.03794688E-08
   1.02000004E-02   2.10258388E-08
   1.02500003E-02   2.16851994E-08
   1.03000002E-02   2.23575025E-08
   1.03500001E-02   2.30426860E-08
   1.04000000E-02   2.37406734E-08
   1.04499999E-02   2.44513672E-08
   1.04999999E-02   2.51746552E-08
   1.05499998E-02   2.59104045E-08
   1.05999997E-02   2.66584674E-08
   1.06499996E-02   2.74186753E-08
   1.07000005E-02   2.81908363E-08
   1.07500004E-02   2.89747391E-08
   1.08000003E-02   2.97701455E-08
   1.08500002E-02   3.05768033E-08
   1.09000001E-02   3.13944390E-08
   1.09500000E-02   3.22227400E-08
   1.09999999E-02   3.30613901E-08
   1.10499999E-02   3.39100374E-08
   1.10999998E-02   3.47683020E-08
   1.11499997E-02   3.56357823E-08
   1.11999996E-02   3.65120520E-08
   1.12500004E-02   3.73966493E-08
   1.13000004E-02   3.82890875E-08
   1.13500003E-02   3.91888513E-08
   1.14000002E-02   4.00953972E-08
   1.14500001E-02   4.10081498E-08
   1.15000000E-02   4.19265049E-08
   1.15499999E-02   4.28498268E-08
   1.15999999E-02   4.37774474E-08
   1.16499998E-02   4.47086634E-08
   1.16999997E-02   4.56427358E-08
   1.17499996E-02   4.65788936E-08
   1.18000004E-02   4.75163375E-08
   1.18500004E-02   4.84542291E-08
   1.19000003E-02   4.93916907E-08
   1.19500002E-02   5.03278130E-08
   1.20000001E-02   5.12616438E-08
   1.20500000E-02   5.21921919E-08
   1.20999999E-02   5.31184412E-08
   1.21499998E-02   5.40393366E-08
   1.21999998E-02   5.49537695E-08
   1.22499997E-02   5.58605997E-08
   1.22999996E-02   5.67586333E-08
   1.23500004E-02   5.76466590E-08
   1.24000004E-02   5.85234226E-08
   1.24500003E-02   5.93876095E-08
   1.25000002E-02   6.02378805E-08
   1.25500001E-02   6.10728463E-08
   1.26000000E-02   6.18910860E-08
   1.26499999E-02   6.26911216E-08
   1.26999998E-02   6.34714397E-08
   1.27499998E-02   6.42304840E-08
   1.27999997E-02   6.49666489E-08
   1.28499996E-02   6.56783001E-08
   1.29000004E-02   6.63637394E-08
   1.29500004E-02   6.70212401E-08
   1.30000003E-02   6.76490330E-08
   1.30500002E-02   6.82452992E-08
   1.31000001E-02   6.88081698E-08
   1.31500000E-02   6.93357336E-08
   1.31999999E-02   6.98260507E-08
   1.32499998E-02   7.02771317E-08
   1.32999998E-02   7.06869372E-08
   1.33499997E-02   7.10533854E-08
   1.33999996E-02   7.13743518E-08
   1.34500004E-02   7.16476620E-08
   1.35000004E-02   7.18711206E-08
   1.35500003E-02   7.20424751E-08
   1.36000002E-02   7.21594304E-08
   1.36500001E-02   7.22196489E-08
   1.37000000E-02   7.22207645E-08
   1.37499999E-02   7.21603541E-08
   1.37999998E-02   7.20359594E-08
   1.38499998E-02   7.18451005E-08
   1.38999997E-02   7.15852266E-08
   1.39499996E-02   7.12537869E-08
   1.40000004E-02   7.08481593E-08
   1.40500003E-02   7.03657008E-08
   1.41000003E-02   6.98037468E-08
   1.41500002E-02   6.91595758E-08
   1.42000001E-02   6.84304453E-08
   1.42500000E-02   6.76135699E-08
   1.42999999E-02   6.67061570E-08
   1.43499998E-02   6.57053576E-08
   1.43999998E-02   6.46083009E-08
   1.44499997E-02   6.34121022E-08
   1.44999996E-02   6.21138412E-08
   1.45500004E-02   6.07105690E-08
   1.46000003E-02   5.91993192E-08
   1.46500003E-02   5.75771111E-08
   1.47000002E-02   5.58409212E-08
   1.47500001E-02   5.39877263E-08
   1.48000000E-02   5.20144887E-08
   1.48499999E-02   4.99181603E-08
   1.48999998E-02   4.76956572E-08
   1.49499997E-02   4.53438993E-08
   1.49999997E-02   4.28597993E-08
   1.50499996E-02   4.02402591E-08
   1.51000004E-02   3.74821809E-08
   1.51500003E-02   3.45824560E-08
   1.52000003E-02   3.15379864E-08
   1.52500002E-02   2.83456654E-08
   1.53000001E-02   2.50023966E-08
   1.53500000E-02   2.15050875E-08
   1.53999999E-02   1.78506649E-08
   1.54499998E-02   1.40360568E-08
   1.54999997E-02   1.00582040E-08
   1.55499997E-02   5.91407012E-09
   1.55999996E-02   1.60064417E-09
   1.56500004E-02  -2.88507196E-09
   1.56999994E-02  -7.54604823E-09
   1.57500003E-02  -1.23852191E-08
   1.57999992E-02  -1.74054939E-08
   1.58500001E-02  -2.26097434E-08
   1.59000009E-02  -2.80008070E-08
   1.59499999E-02  -3.35814718E-08
   1.60000008E-02  -3.93544930E-08
   1.60499997E-02  -4.53225688E-08
   1.61000006E-02  -5.14883531E-08
   1.61499996E-02  -5.78544324E-08
   1.62000004E-02  -6.44233538E-08
   1.62499994E-02  -7.11975972E-08
   1.63000003E-02  -7.81795535E-08
   1.63499992E-02  -8.53715747E-08
   1.64000001E-02  -9.27759345E-08
   1.64500009E-02  -1.00394821E-07
   1.64999999E-02  -1.08230360E-07
   1.65500008E-02  -1.16284561E-07
   1.65999997E-02  -1.24559392E-07
   1.66500006E-02  -1.33056687E-07
   1.66999996E-02  -1.41778187E-07
   1.67500004E-02  -1.50725583E-07
   1.67999994E-02  -1.59900395E-07
   1.68500002E-02  -1.69304059E-07
   1.68999992E-02  -1.78937938E-07
   1.69500001E-02  -1.88803241E-07
   1.70000009E-02  -1.98901077E-07
   1.70499999E-02  -2.09232383E-07
   1.71000008E-02  -2.19798039E-07
   1.71499997E-02  -2.30598744E-07
   1.72000006E-02  -2.41635064E-07
   1.72499996E-02  -2.52907398E-07
   1.73000004E-02  -2.64416087E-07
   1.73499994E-02  -2.76161302E-07
   1.74000002E-02  -2.88142985E-07
   1.74499992E-02  -3.00360966E-07
   1.75000001E-02  -3.12814876E-07
   1.75500009E-02  -3.25504232E-07
   1.75999999E-02  -3.38428379E-07
   1.76500008E-02  -3.51586436E-07
   1.76999997E-02  -3.64977410E-07
   1.77500006E-02  -3.78600049E-07
   1.77999996E-02  -3.92452989E-07
   1.78500004E-02  -4.06534639E-07
   1.78999994E-02  -4.20843151E-07
   1.79500002E-02  -4.35376563E-07
   1.79999992E-02  -4.50132717E-07
   1.80500001E-02  -4.65109196E-07
   1.81000009E-02  -4.80303299E-07
   1.81499999E-02  -4.95712300E-07
   1.82000007E-02  -5.11333099E-07
   1.82499997E-02  -5.27162399E-07
   1.83000006E-02  -5.43196620E-07
   1.83499996E-02  -5.59432067E-07
   1.84000004E-02  -5.75864760E-07
   1.84499994E-02  -5.92490494E-07
   1.85000002E-02  -6.09304834E-07
   1.85499992E-02  -6.26302949E-07
   1.86000001E-02  -6.43479893E-07
   1.86500009E-02  -6.60830494E-07
   1.86999999E-02  -6.78349238E-07
   1.87500007E-02  -6.96030384E-07
   1.87999997E-02  -7.13867905E-07
   1.88500006E-02  -7.31855550E-07
   1.88999996E-02  -7.49986668E-07
   1.89500004E-02  -7.68254495E-07
   1.89999994E-02  -7.86651867E-07
   1.90500002E-02  -8.05171567E-07
   1.90999992E-02  -8.23805749E-07
   1.91500001E-02  -8.42546626E-07
   1.92000009E-02  -8.61385786E-07
   1.92499999E-02  -8.80314758E-07
   1.93000007E-02  -8.99324789E-07
   1.93499997E-02  -9.18406613E-07
   1.94000006E-02  -9.37550908E-07
   1.94499996E-02  -9.56747954E-07
   1.95000004E-02  -9.75987746E-07
   1.95499994E-02  -9.95259825E-07
   1.96000002E-02  -1.01455373E-06
   1.96499992E-02  -1.03385844E-06
   1.97000001E-02  -1.05316280E-06
   1.97500009E-02  -1.07245535E-06
   1.97999999E-02  -1.09172402E-06
   1.98500007E-02  -1.11095665E-06
   1.98999997E-02  -1.13014107E-06
   1.99500006E-02  -1.14926445E-06
   1.99999996E-02  -1.16831359E-06
   2.00500004E-02  -1.18727530E-06
   2.00999994E-02  -1.20613583E-06
   2.01500002E-02  -1.22488109E-06
   2.01999992E-02  -1.24349697E-06
   2.02500001E-02  -1.26196869E-06
   2.03000009E-02  -1.28028159E-06
   2.03499999E-02  -1.29842022E-06
   2.04000007E-02  -1.31636921E-06
   2.04499997E-02  -1.33411288E-06
   2.05000006E-02  -1.35163498E-06
   2.05499995E-02  -1.36891913E-06
   2.06000004E-02  -1.38594862E-06
   2.06499994E-02  -1.40270663E-06
   2.07000002E-02  -1.41917576E-06
   2.07499992E-02  -1.43533873E-06
   2.08000001E-02  -1.45117758E-06
   2.08500009E-02  -1.46667446E-06
   2.08999999E-02  -1.48181073E-06
   2.09500007E-02  -1.49656796E-06
   2.09999997E-02  -1.51092729E-06
   2.10500006E-02  -1.52486950E-06
   2.10999995E-02  -1.53837527E-06
   2.11500004E-02  -1.55142504E-06
   2.11999994E-02  -1.56399892E-06
   2.12500002E-02  -1.57607667E-06
   2.12999992E-02  -1.58763805E-06
   2.13500001E-02  -1.59866249E-06
   2.14000009E-02  -1.60912941E-06
   2.14499999E-02  -1.61901778E-06
   2.15000007E-02  -1.62830645E-06
   2.15499997E-02  -1.63697393E-06
   2.16000006E-02  -1.64499863E-06
   2.16499995E-02  -1.65235906E-06
   2.17000004E-02  -1.65903327E-06
   2.17499994E-02  -1.66499910E-06
   2.18000002E-02  -1.67023438E-06
   2.18499992E-02  -1.67471671E-06
   2.19000001E-02  -1.67842370E-06
   2.19500009E-02  -1.68133272E-06
   2.19999999E-02  -1.68342103E-06
   2.20500007E-02  -1.68466590E-06
   2.20999997E-02  -1.68504425E-06
   2.21500006E-02  -1.68453312E-06
   2.21999995E-02  -1.68310942E-06
   2.22500004E-02  -1.68075007E-06
   2.22999994E-02  -1.67743190E-06
   2.23500002E-02  -1.67313169E-06
   2.23999992E-02  -1.66782604E-06
   2.24500000E-02  -1.66149186E-06
   2.25000009E-02  -1.65410597E-06
   2.25499999E-02  -1.64564483E-06
   2.26000007E-02  -1.63608547E-06
   2.26499997E-02  -1.62540448E-06
   2.27000006E-02  -1.61357900E-06
   2.27499995E-02  -1.60058573E-06
   2.28000004E-02  -1.58640171E-06
   2.28499994E-02  -1.57100408E-06
   2.29000002E-02  -1.55436999E-06
   2.29499992E-02  -1.53647704E-06
   2.30000000E-02  -1.51730239E-06
   2.30500009E-02  -1.49682387E-06
   2.30999999E-02  -1.47501942E-06
   2.31500007E-02  -1.45186675E-06
   2.31999997E-02  -1.42734427E-06
   2.32500006E-02  -1.40143027E-06
   2.32999995E-02  -1.37410336E-06
   2.33500004E-02  -1.34534241E-06
   2.33999994E-02  -1.31512684E-06
   2.34500002E-02  -1.28343606E-06
   2.34999992E-02  -1.25024962E-06
   2.35500000E-02  -1.21554774E-06
   2.36000009E-02  -1.17931074E-06
   2.36499999E-02  -1.14151953E-06
   2.37000007E-02  -1.10215512E-06
   2.37499997E-02  -1.06119921E-06
   2.38000005E-02  -1.01863361E-06
   2.38499995E-02  -9.74440582E-07
   2.39000004E-02  -9.28603072E-07
   2.39499994E-02  -8.81104370E-07
   2.40000002E-02  -8.31928276E-07
   2.40499992E-02  -7.81058986E-07
   2.41000000E-02  -7.28481268E-07
   2.41500009E-02  -6.74180512E-07
   2.41999999E-02  -6.18142508E-07
   2.42500007E-02  -5.60353840E-07
   2.42999997E-02  -5.00801548E-07
   2.43500005E-02  -4.39473268E-07
   2.43999995E-02  -3.76357264E-07
   2.44500004E-02  -3.11442562E-07
   2.44999994E-02  -2.44718677E-07
   2.45500002E-02  -1.76176044E-07
   2.45999992E-02  -1.05805675E-07
   2.46500000E-02  -3.35994095E-08
   2.47000009E-02   4.04502778E-08
   2.47499999E-02   1.16350130E-07
   2.48000007E-02   1.94106065E-07
   2.48499997E-02   2.73723231E-07
   2.49000005E-02   3.55205771E-07
   2.49499995E-02   4.38557208E-07
   2.50000004E-02   5.23780045E-07
   2.50499994E-02   6.10876100E-07
   2.51000002E-02   6.99846112E-07
   2.51499992E-02   7.90689853E-07
   2.52000000E-02   8.83406415E-07
   2.52500009E-02   9.77993636E-07
   2.52999999E-02   1.07444851E-06
   2.53500007E-02   1.17276693E-06
   2.53999997E-02   1.27294402E-06
   2.54500005E-02   1.37497364E-06
   2.54999995E-02   1.47884884E-06
   2.55500004E-02   1.58456123E-06
   2.55999994E-02   1.69210182E-06
   2.56500002E-02   1.80146014E-06
   2.56999992E-02   1.91262461E-06
   2.57500000E-02   2.02558272E-06
   2.58000009E-02   2.14032093E-06
   2.58499999E-02   2.25682379E-06
   2.59000007E-02   2.37507561E-06
   2.59499997E-02   2.49505911E-06
   2.60000005E-02   2.61675609E-06
   2.60499995E-02   2.74014633E-06
   2.61000004E-02   2.86520913E-06
   2.61499994E-02   2.99192220E-06
   2.62000002E-02   3.12026214E-06
   2.62499992E-02   3.25020460E-06
   2.63000000E-02   3.38172276E-06
   2.63500009E-02   3.51478957E-06
   2.63999999E-02   3.64937682E-06
   2.64500007E-02   3.78545406E-06
   2.64999997E-02   3.92299080E-06
   2.65500005E-02   4.06195340E-06
   2.65999995E-02   4.20230845E-06
   2.66500004E-02   4.34402045E-06
   2.66999993E-02   4.48705259E-06
   2.67500002E-02   4.63136666E-06
   2.67999992E-02   4.77692311E-06
   2.68500000E-02   4.92368099E-06
   2.69000009E-02   5.07159939E-06
   2.69499999E-02   5.22063283E-06
   2.70000007E-02   5.37073720E-06
   2.70499997E-02   5.52186521E-06
   2.71000005E-02   5.67396910E-06
   2.71499995E-02   5.82700068E-06
   2.72000004E-02   5.98090810E-06
   2.72499993E-02   6.13563907E-06
   2.73000002E-02   6.29114038E-06
   2.73499992E-02   6.44735655E-06
   2.74000000E-02   6.60423120E-06
   2.74500009E-02   6.76170612E-06
   2.74999999E-02   6.91972264E-06
   2.75500007E-02   7.07821982E-06
   2.75999997E-02   7.23713492E-06
   2.76500005E-02   7.39640473E-06
   2.76999995E-02   7.55596329E-06
   2.77500004E-02   7.71574469E-06
   2.77999993E-02   7.87568115E-06
   2.78500002E-02   8.03570310E-06
   2.78999992E-02   8.19574052E-06
   2.79500000E-02   8.35572064E-06
   2.80000009E-02   8.51557070E-06
   2.80499998E-02   8.67521521E-06
   2.81000007E-02   8.83457869E-06
   2.81499997E-02   8.99358292E-06
   2.82000005E-02   9.15214969E-06
   2.82499995E-02   9.31019804E-06
   2.83000004E-02   9.46764612E-06
   2.83499993E-02   9.62441209E-06
   2.84000002E-02   9.78041226E-06
   2.84499992E-02   9.93556114E-06
   2.85000000E-02   1.00897714E-05
   2.85500009E-02   1.02429558E-05
   2.85999998E-02   1.03950260E-05
   2.86500007E-02   1.05458912E-05
   2.86999997E-02   1.06954603E-05
   2.87500005E-02   1.08436407E-05
   2.87999995E-02   1.09903385E-05
   2.88500004E-02   1.11354602E-05
   2.88999993E-02   1.12789094E-05
   2.89500002E-02   1.14205886E-05
   2.89999992E-02   1.15603998E-05
   2.90500000E-02   1.16982455E-05
   2.91000009E-02   1.18340258E-05
   2.91499998E-02   1.19676388E-05
   2.92000007E-02   1.20989844E-05
   2.92499997E-02   1.22279598E-05
   2.93000005E-02   1.23544605E-05
   2.93499995E-02   1.24783846E-05
   2.94000003E-02   1.25996248E-05
   2.94499993E-02   1.27180756E-05
   2.95000002E-02   1.28336324E-05
   2.95499992E-02   1.29461869E-05
   2.96000000E-02   1.30556327E-05
   2.96500009E-02   1.31618599E-05
   2.96999998E-02   1.32647610E-05
   2.97500007E-02   1.33642252E-05
   2.97999997E-02   1.34601432E-05
   2.98500005E-02   1.35524060E-05
   2.98999995E-02   1.36409017E-05
   2.99500003E-02   1.37255192E-05
   2.99999993E-02   1.38061469E-05
   3.00500002E-02   1.38826745E-05
   3.00999992E-02   1.39549893E-05
   3.01500000E-02   1.40229795E-05
   3.02000009E-02   1.40865341E-05
   3.02499998E-02   1.41455403E-05
   3.03000007E-02   1.41998844E-05
   3.03499997E-02   1.42494564E-05
   3.04000005E-02   1.42941426E-05
   3.04499995E-02   1.43338320E-05
   3.05000003E-02   1.43684119E-05
   3.05499993E-02   1.43977704E-05
   3.06000002E-02   1.44217965E-05
   3.06499992E-02   1.44403793E-05
   3.07000000E-02   1.44534088E-05
   3.07500008E-02   1.44607729E-05
   3.07999998E-02   1.44623655E-05
   3.08500007E-02   1.44580745E-05
   3.08999997E-02   1.44477908E-05
   3.09500005E-02   1.44314090E-05
   3.09999995E-02   1.44088208E-05
   3.10500003E-02   1.43799198E-05
   3.10999993E-02   1.43446005E-05
   3.11500002E-02   1.43027573E-05
   3.11999992E-02   1.42542876E-05
   3.12500000E-02   1.41990886E-05
   3.13000008E-02   1.41370592E-05
   3.13500017E-02   1.40680977E-05
   3.13999988E-02   1.39921058E-05
   3.14499997E-02   1.39089843E-05
   3.15000005E-02   1.38186388E-05
   3.15500014E-02   1.37209718E-05
   3.15999985E-02   1.36158906E-05
   3.16499993E-02   1.35033033E-05
   3.17000002E-02   1.33831181E-05
   3.17500010E-02   1.32552459E-05
   3.18000019E-02   1.31195993E-05
   3.18499990E-02   1.29760938E-05
   3.18999998E-02   1.28246447E-05
   3.19500007E-02   1.26651712E-05
   3.20000015E-02   1.24975913E-05
   3.20499986E-02   1.23218279E-05
   3.20999995E-02   1.21378052E-05
   3.21500003E-02   1.19454508E-05
   3.22000012E-02   1.17446916E-05
   3.22499983E-02   1.15354605E-05
   3.22999991E-02   1.13176893E-05
   3.23500000E-02   1.10913134E-05
   3.24000008E-02   1.08562708E-05
   3.24500017E-02   1.06125035E-05
   3.24999988E-02   1.03599523E-05
   3.25499997E-02   1.00985653E-05
   3.26000005E-02   9.82829079E-06
   3.26500013E-02   9.54907955E-06
   3.26999985E-02   9.26088615E-06
   3.27499993E-02   8.96366873E-06
   3.28000002E-02   8.65738639E-06
   3.28500010E-02   8.34200273E-06
   3.29000019E-02   8.01748502E-06
   3.29499990E-02   7.68380141E-06
   3.29999998E-02   7.34092555E-06
   3.30500007E-02   6.98883287E-06
   3.31000015E-02   6.62750335E-06
   3.31499986E-02   6.25691973E-06
   3.31999995E-02   5.87706791E-06
   3.32500003E-02   5.48793741E-06
   3.33000012E-02   5.08952189E-06
   3.33499983E-02   4.68181906E-06
   3.33999991E-02   4.26482893E-06
   3.34500000E-02   3.83855649E-06
   3.35000008E-02   3.40300926E-06
   3.35500017E-02   2.95819996E-06
   3.35999988E-02   2.50414428E-06
   3.36499996E-02   2.04086223E-06
   3.37000005E-02   1.56837825E-06
   3.37500013E-02   1.08672020E-06
   3.37999985E-02   5.95920369E-07
   3.38499993E-02   9.60144462E-08
   3.39000002E-02  -4.12957291E-07
   3.39500010E-02  -9.30949568E-07
   3.40000018E-02  -1.45791341E-06
   3.40499990E-02  -1.99379565E-06
   3.40999998E-02  -2.53853796E-06
   3.41500007E-02  -3.09207849E-06
   3.42000015E-02  -3.65435108E-06
   3.42499986E-02  -4.22528456E-06
   3.42999995E-02  -4.80480321E-06
   3.43500003E-02  -5.39282701E-06
   3.44000012E-02  -5.98927136E-06
   3.44499983E-02  -6.59404577E-06
   3.44999991E-02  -7.20705839E-06
   3.45500000E-02  -7.82821007E-06
   3.46000008E-02  -8.45739578E-06
   3.46500017E-02  -9.09450864E-06
   3.46999988E-02  -9.73943497E-06
   3.47499996E-02  -1.03920565E-05
   3.48000005E-02  -1.10522524E-05
   3.48500013E-02  -1.17198961E-05
   3.48999985E-02  -1.23948539E-05
   3.49499993E-02  -1.30769877E-05
   3.50000001E-02  -1.37661573E-05
   3.50500010E-02  -1.44622172E-05
   3.51000018E-02  -1.51650165E-05
   3.51499990E-02  -1.58743933E-05
   3.51999998E-02  -1.65901911E-05
   3.52500007E-02  -1.73122426E-05
   3.53000015E-02  -1.80403749E-05
   3.53499986E-02  -1.87744117E-05
   3.53999995E-02  -1.95141729E-05
   3.54500003E-02  -2.02594747E-05
   3.55000012E-02  -2.10101225E-05
   3.55499983E-02  -2.17659199E-05
   3.55999991E-02  -2.25266704E-05
   3.56500000E-02  -2.32921666E-05
   3.57000008E-02  -2.40621976E-05
   3.57500017E-02  -2.48365486E-05
   3.57999988E-02  -2.56149997E-05
   3.58499996E-02  -2.63973234E-05
   3.59000005E-02  -2.71832942E-05
   3.59500013E-02  -2.79726737E-05
   3.59999985E-02  -2.87652256E-05
   3.60499993E-02  -2.95607006E-05
   3.61000001E-02  -3.03588531E-05
   3.61500010E-02  -3.11594304E-05
   3.62000018E-02  -3.19621722E-05
   3.62499990E-02  -3.27668167E-05
   3.62999998E-02  -3.35731020E-05
   3.63500006E-02  -3.43807515E-05
   3.64000015E-02  -3.51894851E-05
   3.64499986E-02  -3.59990299E-05
   3.64999995E-02  -3.68090987E-05
   3.65500003E-02  -3.76193966E-05
   3.66000012E-02  -3.84296400E-05
   3.66499983E-02  -3.92395268E-05
   3.66999991E-02  -4.00487515E-05
   3.67500000E-02  -4.08570122E-05
   3.68000008E-02  -4.16639923E-05
   3.68500017E-02  -4.24693826E-05
   3.68999988E-02  -4.32728702E-05
   3.69499996E-02  -4.40741205E-05
   3.70000005E-02  -4.48728169E-05
   3.70500013E-02  -4.56686284E-05
   3.70999984E-02  -4.64612203E-05
   3.71499993E-02  -4.72502543E-05
   3.72000001E-02  -4.80353920E-05
   3.72500010E-02  -4.88162950E-05
   3.73000018E-02  -4.95926142E-05
   3.73499990E-02  -5.03639931E-05
   3.73999998E-02  -5.11300823E-05
   3.74500006E-02  -5.18905326E-05
   3.75000015E-02  -5.26449767E-05
   3.75499986E-02  -5.33930579E-05
   3.75999995E-02  -5.41344089E-05
   3.76500003E-02  -5.48686548E-05
   3.77000012E-02  -5.55954393E-05
   3.77499983E-02  -5.63143803E-05
   3.77999991E-02  -5.70251068E-05
   3.78500000E-02  -5.77272440E-05
   3.79000008E-02  -5.84204063E-05
   3.79500017E-02  -5.91042190E-05
   3.79999988E-02  -5.97782928E-05
   3.80499996E-02  -6.04422457E-05
   3.81000005E-02  -6.10956922E-05
   3.81500013E-02  -6.17382539E-05
   3.81999984E-02  -6.23695159E-05
   3.82499993E-02  -6.29891147E-05
   3.83000001E-02  -6.35966426E-05
   3.83500010E-02  -6.41917140E-05
   3.84000018E-02  -6.47739289E-05
   3.84499989E-02  -6.53428870E-05
   3.84999998E-02  -6.58982099E-05
   3.85500006E-02  -6.64394975E-05
   3.86000015E-02  -6.69663496E-05
   3.86499986E-02  -6.74783587E-05
   3.86999995E-02  -6.79751392E-05
   3.87500003E-02  -6.84562983E-05
   3.88000011E-02  -6.89214357E-05
   3.88499983E-02  -6.93701440E-05
   3.88999991E-02  -6.98020449E-05
   3.89500000E-02  -7.02167381E-05
   3.90000008E-02  -7.06138308E-05
   3.90500017E-02  -7.09929227E-05
   3.90999988E-02  -7.13536283E-05
   3.91499996E-02  -7.16955547E-05
   3.92000005E-02  -7.20183016E-05
   3.92500013E-02  -7.23214907E-05
   3.92999984E-02  -7.26047438E-05
   3.93499993E-02  -7.28676678E-05
   3.94000001E-02  -7.31098771E-05
   3.94500010E-02  -7.33310007E-05
   3.95000018E-02  -7.35306530E-05
   3.95499989E-02  -7.37084556E-05
   3.95999998E-02  -7.38640447E-05
   3.96500006E-02  -7.39970419E-05
   3.97000015E-02  -7.41070762E-05
   3.97499986E-02  -7.41937984E-05
   3.97999994E-02  -7.42568373E-05
   3.98500003E-02  -7.42958364E-05
   3.99000011E-02  -7.43104392E-05
   3.99499983E-02  -7.43003038E-05
   3.99999991E-02  -7.42650882E-05
   4.00500000E-02  -7.42044358E-05
   4.01000008E-02  -7.41180193E-05
   4.01500016E-02  -7.40055111E-05
   4.01999988E-02  -7.38665694E-05
   4.02499996E-02  -7.37008813E-05
   4.03000005E-02  -7.35081267E-05
   4.03500013E-02  -7.32879926E-05
   4.03999984E-02  -7.30401589E-05
   4.04499993E-02  -7.27643492E-05
   4.05000001E-02  -7.24602505E-05
   4.05500010E-02  -7.21275719E-05
   4.06000018E-02  -7.17660369E-05
   4.06499989E-02  -7.13753543E-05
   4.06999998E-02  -7.09552623E-05
   4.07500006E-02  -7.05054845E-05
   4.08000015E-02  -7.00257733E-05
   4.08499986E-02  -6.95158815E-05
   4.08999994E-02  -6.89755470E-05
   4.09500003E-02  -6.84045444E-05
   4.10000011E-02  -6.78026408E-05
   4.10499983E-02  -6.71696034E-05
   4.10999991E-02  -6.65052285E-05
   4.11499999E-02  -6.58093049E-05
   4.12000008E-02  -6.50816364E-05
   4.12500016E-02  -6.43220337E-05
   4.12999988E-02  -6.35303004E-05
   4.13499996E-02  -6.27062836E-05
   4.14000005E-02  -6.18497943E-05
   4.14500013E-02  -6.09606977E-05
   4.14999984E-02  -6.00388303E-05
   4.15499993E-02  -5.90840646E-05
   4.16000001E-02  -5.80962624E-05
   4.16500010E-02  -5.70753109E-05
   4.17000018E-02  -5.60210974E-05
   4.17499989E-02  -5.49335164E-05
   4.17999998E-02  -5.38124877E-05
   4.18500006E-02  -5.26579206E-05
   4.19000015E-02  -5.14697458E-05
   4.19499986E-02  -5.02479124E-05
   4.19999994E-02  -4.89923659E-05
   4.20500003E-02  -4.77030662E-05
   4.21000011E-02  -4.63799843E-05
   4.21499982E-02  -4.50231018E-05
   4.21999991E-02  -4.36324117E-05
   4.22499999E-02  -4.22079247E-05
   4.23000008E-02  -4.07496518E-05
   4.23500016E-02  -3.92576185E-05
   4.23999988E-02  -3.77318647E-05
   4.24499996E-02  -3.61724451E-05
   4.25000004E-02  -3.45794215E-05
   4.25500013E-02  -3.29528593E-05
   4.25999984E-02  -3.12928532E-05
   4.26499993E-02  -2.95994960E-05
   4.27000001E-02  -2.78729003E-05
   4.27500010E-02  -2.61131881E-05
   4.28000018E-02  -2.43204940E-05