   0.00000000       0.00000000    
   4.99999987E-05   0.00000000    
   9.99999975E-05   0.00000000    
   1.50000007E-04   0.00000000    
   1.99999995E-04   1.12709496E-23
   2.50000012E-04   1.14413874E-22
   3.00000014E-04   6.27351568E-22
   3.49999988E-04   2.47735545E-21
   3.99999990E-04   7.90544428E-21
   4.49999992E-04   2.16689833E-20
   5.00000024E-04   5.29489490E-20
   5.49999997E-04   1.18212110E-19
   6.00000028E-04   2.45325226E-19
   6.50000002E-04   4.79268602E-19
   6.99999975E-04   8.89848436E-19
   7.50000007E-04   1.58186422E-18
   7.99999980E-04   2.70824764E-18
   8.50000011E-04   4.48674552E-18
   8.99999985E-04   7.22079044E-18
   9.50000016E-04   1.13252722E-17
   1.00000005E-03   1.73579683E-17
   1.04999996E-03   2.60575293E-17
   1.09999999E-03   3.83888964E-17
   1.15000003E-03   5.55971780E-17
   1.20000006E-03   7.92710673E-17
   1.24999997E-03   1.11416980E-16
   1.30000000E-03   1.54545211E-16
   1.35000004E-03   2.11769314E-16
   1.39999995E-03   2.86920314E-16
   1.44999998E-03   3.84677048E-16
   1.50000001E-03   5.10714810E-16
   1.55000004E-03   6.71873098E-16
   1.59999996E-03   8.76345052E-16
   1.64999999E-03   1.13389040E-15
   1.70000002E-03   1.45607399E-15
   1.75000005E-03   1.85653105E-15
   1.79999997E-03   2.35126266E-15
   1.85000000E-03   2.95896370E-15
   1.90000003E-03   3.70138702E-15
   1.94999995E-03   4.60373969E-15
   2.00000009E-03   5.69512470E-15
   2.05000001E-03   7.00902188E-15
   2.09999993E-03   8.58382003E-15
   2.15000007E-03   1.04633861E-14
   2.19999999E-03   1.26977007E-14
   2.24999990E-03   1.53435394E-14
   2.30000005E-03   1.84652132E-14
   2.34999997E-03   2.21353782E-14
   2.40000011E-03   2.64359068E-14
   2.45000003E-03   3.14588172E-14
   2.49999994E-03   3.73073019E-14
   2.55000009E-03   4.40968131E-14
   2.60000001E-03   5.19562285E-14
   2.64999992E-03   6.10291236E-14
   2.70000007E-03   7.14751202E-14
   2.74999999E-03   8.34713429E-14
   2.79999990E-03   9.72139443E-14
   2.85000005E-03   1.12919751E-13
   2.89999996E-03   1.30828088E-13
   2.95000011E-03   1.51202577E-13
   3.00000003E-03   1.74333136E-13
   3.04999994E-03   2.00538181E-13
   3.10000009E-03   2.30166770E-13
   3.15000000E-03   2.63601071E-13
   3.19999992E-03   3.01258882E-13
   3.25000007E-03   3.43596272E-13
   3.29999998E-03   3.91110457E-13
   3.34999990E-03   4.44342940E-13
   3.40000005E-03   5.03882147E-13
   3.44999996E-03   5.70367375E-13
   3.50000011E-03   6.44491947E-13
   3.55000002E-03   7.27007050E-13
   3.59999994E-03   8.18725459E-13
   3.65000009E-03   9.20525917E-13
   3.70000000E-03   1.03335732E-12
   3.74999992E-03   1.15824266E-12
   3.80000006E-03   1.29628459E-12
   3.84999998E-03   1.44866985E-12
   3.89999989E-03   1.61667468E-12
   3.94999981E-03   1.80166982E-12
   4.00000019E-03   2.00512632E-12
   4.05000011E-03   2.22862180E-12
   4.10000002E-03   2.47384708E-12
   4.14999994E-03   2.74261061E-12
   4.19999985E-03   3.03684703E-12
   4.25000023E-03   3.35862328E-12
   4.30000015E-03   3.71014677E-12
   4.35000006E-03   4.09377263E-12
   4.39999998E-03   4.51200882E-12
   4.44999989E-03   4.96752812E-12
   4.49999981E-03   5.46317592E-12
   4.55000019E-03   6.00197669E-12
   4.60000010E-03   6.58714359E-12
   4.65000002E-03   7.22209141E-12
   4.69999993E-03   7.91044227E-12
   4.74999985E-03   8.65603856E-12
   4.80000023E-03   9.46294865E-12
   4.85000014E-03   1.03354833E-11
   4.90000006E-03   1.12782023E-11
   4.94999997E-03   1.22959308E-11
   4.99999989E-03   1.33937653E-11
   5.04999980E-03   1.45770930E-11
   5.10000018E-03   1.58515943E-11
   5.15000010E-03   1.72232593E-11
   5.20000001E-03   1.86984161E-11
   5.24999993E-03   2.02837209E-11
   5.29999984E-03   2.19861802E-11
   5.35000023E-03   2.38131806E-11
   5.40000014E-03   2.57724796E-11
   5.45000006E-03   2.78722288E-11
   5.49999997E-03   3.01210029E-11
   5.54999989E-03   3.25277999E-11
   5.59999980E-03   3.51020636E-11
   5.65000018E-03   3.78536959E-11
   5.70000010E-03   4.07930738E-11
   5.75000001E-03   4.39310706E-11
   5.79999993E-03   4.72790834E-11
   5.84999984E-03   5.08490298E-11
   5.90000022E-03   5.46533825E-11
   5.95000014E-03   5.87051657E-11
   6.00000005E-03   6.30180075E-11
   6.04999997E-03   6.76061498E-11
   6.09999988E-03   7.24844351E-11
   6.14999980E-03   7.76683648E-11
   6.20000018E-03   8.31740996E-11
   6.25000009E-03   8.90184801E-11
   6.30000001E-03   9.52190757E-11
   6.34999992E-03   1.01794156E-10
   6.39999984E-03   1.08762749E-10
   6.45000022E-03   1.16144670E-10
   6.50000013E-03   1.23960509E-10
   6.55000005E-03   1.32231642E-10
   6.59999996E-03   1.40980366E-10
   6.64999988E-03   1.50229718E-10
   6.69999979E-03   1.60003677E-10
   6.75000018E-03   1.70327141E-10
   6.80000009E-03   1.81225868E-10
   6.85000001E-03   1.92726585E-10
   6.89999992E-03   2.04856992E-10
   6.94999984E-03   2.17645790E-10
   7.00000022E-03   2.31122677E-10
   7.05000013E-03   2.45318404E-10
   7.10000005E-03   2.60264671E-10
   7.14999996E-03   2.75994422E-10
   7.19999988E-03   2.92541547E-10
   7.24999979E-03   3.09941101E-10
   7.30000017E-03   3.28229305E-10
   7.35000009E-03   3.47443491E-10
   7.40000000E-03   3.67622183E-10
   7.44999992E-03   3.88805127E-10
   7.49999983E-03   4.11033235E-10
   7.55000021E-03   4.34348724E-10
   7.60000013E-03   4.58794919E-10
   7.65000004E-03   4.84416562E-10
   7.69999996E-03   5.11259590E-10
   7.74999987E-03   5.39371270E-10
   7.79999979E-03   5.68800063E-10
   7.84999970E-03   5.99596039E-10
   7.89999962E-03   6.31810382E-10
   7.95000046E-03   6.65495603E-10
   8.00000038E-03   7.00705716E-10
   8.05000030E-03   7.37496064E-10
   8.10000021E-03   7.75923270E-10
   8.15000013E-03   8.16045453E-10
   8.20000004E-03   8.57921956E-10
   8.24999996E-03   9.01613839E-10
   8.29999987E-03   9.47183221E-10
   8.34999979E-03   9.94693883E-10
   8.39999970E-03   1.04421061E-09
   8.44999962E-03   1.09580023E-09
   8.50000046E-03   1.14953025E-09
   8.55000038E-03   1.20546995E-09
   8.60000029E-03   1.26368982E-09
   8.65000021E-03   1.32426214E-09
   8.70000012E-03   1.38725997E-09
   8.75000004E-03   1.45275791E-09
   8.79999995E-03   1.52083213E-09
   8.84999987E-03   1.59155977E-09
   8.89999978E-03   1.66501923E-09
   8.94999970E-03   1.74129078E-09
   8.99999961E-03   1.82045512E-09
   9.05000046E-03   1.90259453E-09
   9.10000037E-03   1.98779238E-09
   9.15000029E-03   2.07613349E-09
   9.20000020E-03   2.16770313E-09
   9.25000012E-03   2.26258812E-09
   9.30000003E-03   2.36087594E-09
   9.34999995E-03   2.46265519E-09
   9.39999986E-03   2.56801558E-09
   9.44999978E-03   2.67704703E-09
   9.49999969E-03   2.78984147E-09
   9.54999961E-03   2.90649016E-09
   9.60000046E-03   3.02708547E-09
   9.65000037E-03   3.15172111E-09
   9.70000029E-03   3.28049055E-09
   9.75000020E-03   3.41348771E-09
   9.80000012E-03   3.55080698E-09
   9.85000003E-03   3.69254272E-09
   9.89999995E-03   3.83879017E-09
   9.94999986E-03   3.98964373E-09
   9.99999978E-03   4.14519885E-09
   1.00499997E-02   4.30554969E-09
   1.00999996E-02   4.47079085E-09
   1.01500005E-02   4.64101690E-09
   1.02000004E-02   4.81632068E-09
   1.02500003E-02   4.99679587E-09
   1.03000002E-02   5.18253485E-09
   1.03500001E-02   5.37362865E-09
   1.04000000E-02   5.57016744E-09
   1.04499999E-02   5.77224091E-09
   1.04999999E-02   5.97993566E-09
   1.05499998E-02   6.19334006E-09
   1.05999997E-02   6.41253806E-09
   1.06499996E-02   6.63761268E-09
   1.07000005E-02   6.86864432E-09
   1.07500004E-02   7.10571291E-09
   1.08000003E-02   7.34889483E-09
   1.08500002E-02   7.59826335E-09
   1.09000001E-02   7.85389176E-09
   1.09500000E-02   8.11584666E-09
   1.09999999E-02   8.38419290E-09
   1.10499999E-02   8.65899175E-09
   1.10999998E-02   8.94030450E-09
   1.11499997E-02   9.22818355E-09
   1.11999996E-02   9.52268042E-09
   1.12500004E-02   9.82384130E-09
   1.13000004E-02   1.01317079E-08
   1.13500003E-02   1.04463167E-08
   1.14000002E-02   1.07677005E-08
   1.14500001E-02   1.10958851E-08
   1.15000000E-02   1.14308927E-08
   1.15499999E-02   1.17727383E-08
   1.15999999E-02   1.21214327E-08
   1.16499998E-02   1.24769786E-08
   1.16999997E-02   1.28393705E-08
   1.17499996E-02   1.32085995E-08
   1.18000004E-02   1.35846481E-08
   1.18500004E-02   1.39674903E-08
   1.19000003E-02   1.43570933E-08
   1.19500002E-02   1.47534154E-08
   1.20000001E-02   1.51564077E-08
   1.20500000E-02   1.55660125E-08
   1.20999999E-02   1.59821596E-08
   1.21499998E-02   1.64047709E-08
   1.21999998E-02   1.68337628E-08
   1.22499997E-02   1.72690395E-08
   1.22999996E-02   1.77104909E-08
   1.23500004E-02   1.81579978E-08
   1.24000004E-02   1.86114324E-08
   1.24500003E-02   1.90706526E-08
   1.25000002E-02   1.95355057E-08
   1.25500001E-02   2.00058263E-08
   1.26000000E-02   2.04814388E-08
   1.26499999E-02   2.09621493E-08
   1.26999998E-02   2.14477538E-08
   1.27499998E-02   2.19380336E-08
   1.27999997E-02   2.24327579E-08
   1.28499996E-02   2.29316814E-08
   1.29000004E-02   2.34345396E-08
   1.29500004E-02   2.39410589E-08
   1.30000003E-02   2.44509462E-08
   1.30500002E-02   2.49638923E-08
   1.31000001E-02   2.54795722E-08
   1.31500000E-02   2.59976449E-08
   1.31999999E-02   2.65177533E-08
   1.32499998E-02   2.70395173E-08
   1.32999998E-02   2.75625460E-08
   1.33499997E-02   2.80864221E-08
   1.33999996E-02   2.86107209E-08
   1.34500004E-02   2.91349895E-08
   1.35000004E-02   2.96587572E-08
   1.35500003E-02   3.01815390E-08
   1.36000002E-02   3.07028216E-08
   1.36500001E-02   3.12220756E-08
   1.37000000E-02   3.17387538E-08
   1.37499999E-02   3.22522808E-08
   1.37999998E-02   3.27620668E-08
   1.38499998E-02   3.32674972E-08
   1.38999997E-02   3.37679289E-08
   1.39499996E-02   3.42627082E-08
   1.40000004E-02   3.47511495E-08
   1.40500003E-02   3.52325493E-08
   1.41000003E-02   3.57061793E-08
   1.41500002E-02   3.61712829E-08
   1.42000001E-02   3.66270889E-08
   1.42500000E-02   3.70727982E-08
   1.42999999E-02   3.75075864E-08
   1.43499998E-02   3.79305973E-08
   1.43999998E-02   3.83409642E-08
   1.44499997E-02   3.87377810E-08
   1.44999996E-02   3.91201276E-08
   1.45500004E-02   3.94870519E-08
   1.46000003E-02   3.98375803E-08
   1.46500003E-02   4.01707076E-08
   1.47000002E-02   4.04854141E-08
   1.47500001E-02   4.07806411E-08
   1.48000000E-02   4.10553049E-08
   1.48499999E-02   4.13083114E-08
   1.48999998E-02   4.15385202E-08
   1.49499997E-02   4.17447765E-08
   1.49999997E-02   4.19258939E-08
   1.50499996E-02   4.20806643E-08
   1.51000004E-02   4.22078479E-08
   1.51500003E-02   4.23061834E-08
   1.52000003E-02   4.23743813E-08
   1.52500002E-02   4.24111235E-08
   1.53000001E-02   4.24150706E-08
   1.53500000E-02   4.23848547E-08
   1.53999999E-02   4.23190833E-08
   1.54499998E-02   4.22163389E-08
   1.54999997E-02   4.20751789E-08
   1.55499997E-02   4.18941291E-08
   1.55999996E-02   4.16717043E-08
   1.56500004E-02   4.14063841E-08
   1.56999994E-02   4.10966230E-08
   1.57500003E-02   4.07408578E-08
   1.57999992E-02   4.03374969E-08
   1.58500001E-02   3.98849345E-08
   1.59000009E-02   3.93815291E-08
   1.59499999E-02   3.88256254E-08
   1.60000008E-02   3.82155534E-08
   1.60499997E-02   3.75496114E-08
   1.61000006E-02   3.68260800E-08
   1.61499996E-02   3.60432111E-08
   1.62000004E-02   3.51992604E-08
   1.62499994E-02   3.42924587E-08
   1.63000003E-02   3.33209940E-08
   1.63499992E-02   3.22830651E-08
   1.64000001E-02   3.11768495E-08
   1.64500009E-02   3.00005105E-08
   1.64999999E-02   2.87521829E-08
   1.65500008E-02   2.74300085E-08
   1.65999997E-02   2.60321009E-08
   1.66500006E-02   2.45565666E-08
   1.66999996E-02   2.30015118E-08
   1.67500004E-02   2.13650235E-08
   1.67999994E-02   1.96451886E-08
   1.68500002E-02   1.78400743E-08
   1.68999992E-02   1.59477462E-08
   1.69500001E-02   1.39662752E-08
   1.70000009E-02   1.18937233E-08
   1.70499999E-02   9.72815339E-09
   1.71000008E-02   7.46762741E-09
   1.71499997E-02   5.11019627E-09
   1.72000006E-02   2.65393263E-09
   1.72499996E-02   9.69145458E-11
   1.73000004E-02  -2.56278954E-09
   1.73499994E-02  -5.32710054E-09
   1.74000002E-02  -8.19792945E-09
   1.74499992E-02  -1.11771765E-08
   1.75000001E-02  -1.42667229E-08
   1.75500009E-02  -1.74684427E-08
   1.75999999E-02  -2.07841850E-08
   1.76500008E-02  -2.42157885E-08
   1.76999997E-02  -2.77650667E-08
   1.77500006E-02  -3.14338138E-08
   1.77999996E-02  -3.52238132E-08
   1.78500004E-02  -3.91368040E-08
   1.78999994E-02  -4.31745022E-08
   1.79500002E-02  -4.73385846E-08
   1.79999992E-02  -5.16307068E-08
   1.80500001E-02  -5.60525102E-08
   1.81000009E-02  -6.06055650E-08
   1.81499999E-02  -6.52914025E-08
   1.82000007E-02  -7.01115255E-08
   1.82499997E-02  -7.50674118E-08
   1.83000006E-02  -8.01604685E-08
   1.83499996E-02  -8.53920525E-08
   1.84000004E-02  -9.07634927E-08
   1.84499994E-02  -9.62760325E-08
   1.85000002E-02  -1.01930887E-07
   1.85499992E-02  -1.07729200E-07
   1.86000001E-02  -1.13672030E-07
   1.86500009E-02  -1.19760429E-07
   1.86999999E-02  -1.25995328E-07
   1.87500007E-02  -1.32377622E-07
   1.87999997E-02  -1.38908106E-07
   1.88500006E-02  -1.45587535E-07
   1.88999996E-02  -1.52416561E-07
   1.89500004E-02  -1.59395768E-07
   1.89999994E-02  -1.66525638E-07
   1.90500002E-02  -1.73806598E-07
   1.90999992E-02  -1.81238946E-07
   1.91500001E-02  -1.88822924E-07
   1.92000009E-02  -1.96558673E-07
   1.92499999E-02  -2.04446224E-07
   1.93000007E-02  -2.12485517E-07
   1.93499997E-02  -2.20676355E-07
   1.94000006E-02  -2.29018511E-07
   1.94499996E-02  -2.37511571E-07
   1.95000004E-02  -2.46155054E-07
   1.95499994E-02  -2.54948333E-07
   1.96000002E-02  -2.63890655E-07
   1.96499992E-02  -2.72981225E-07
   1.97000001E-02  -2.82219077E-07
   1.97500009E-02  -2.91603072E-07
   1.97999999E-02  -3.01131990E-07
   1.98500007E-02  -3.10804467E-07
   1.98999997E-02  -3.20618994E-07
   1.99500006E-02  -3.30573954E-07
   1.99999996E-02  -3.40667555E-07
   2.00500004E-02  -3.50897892E-07
   2.00999994E-02  -3.61262835E-07
   2.01500002E-02  -3.71760194E-07
   2.01999992E-02  -3.82387640E-07
   2.02500001E-02  -3.93142585E-07
   2.03000009E-02  -4.04022387E-07
   2.03499999E-02  -4.15024147E-07
   2.04000007E-02  -4.26144879E-07
   2.04499997E-02  -4.37381431E-07
   2.05000006E-02  -4.48730418E-07
   2.05499995E-02  -4.60188346E-07
   2.06000004E-02  -4.71751491E-07
   2.06499994E-02  -4.83415988E-07
   2.07000002E-02  -4.95177858E-07
   2.07499992E-02  -5.07032723E-07
   2.08000001E-02  -5.18976321E-07
   2.08500009E-02  -5.31003991E-07
   2.08999999E-02  -5.43110957E-07
   2.09500007E-02  -5.55292218E-07
   2.09999997E-02  -5.67542656E-07
   2.10500006E-02  -5.79856817E-07
   2.10999995E-02  -5.92229298E-07
   2.11500004E-02  -6.04654190E-07
   2.11999994E-02  -6.17125693E-07
   2.12500002E-02  -6.29637498E-07
   2.12999992E-02  -6.42183352E-07
   2.13500001E-02  -6.54756718E-07
   2.14000009E-02  -6.67350776E-07
   2.14499999E-02  -6.79958532E-07
   2.15000007E-02  -6.92572939E-07
   2.15499997E-02  -7.05186494E-07
   2.16000006E-02  -7.17791636E-07
   2.16499995E-02  -7.30380634E-07
   2.17000004E-02  -7.42945417E-07
   2.17499994E-02  -7.55477799E-07
   2.18000002E-02  -7.67969368E-07
   2.18499992E-02  -7.80411483E-07
   2.19000001E-02  -7.92795277E-07
   2.19500009E-02  -8.05111654E-07
   2.19999999E-02  -8.17351349E-07
   2.20500007E-02  -8.29504984E-07
   2.20999997E-02  -8.41562724E-07
   2.21500006E-02  -8.53514791E-07
   2.21999995E-02  -8.65351012E-07
   2.22500004E-02  -8.77061098E-07
   2.22999994E-02  -8.88634531E-07
   2.23500002E-02  -9.00060570E-07
   2.23999992E-02  -9.11328300E-07
   2.24500000E-02  -9.22426523E-07
   2.25000009E-02  -9.33343870E-07
   2.25499999E-02  -9.44069029E-07
   2.26000007E-02  -9.54590064E-07
   2.26499997E-02  -9.64895094E-07
   2.27000006E-02  -9.74971954E-07
   2.27499995E-02  -9.84808480E-07
   2.28000004E-02  -9.94392167E-07
   2.28499994E-02  -1.00371017E-06
   2.29000002E-02  -1.01274964E-06
   2.29499992E-02  -1.02149784E-06
   2.30000000E-02  -1.02994125E-06
   2.30500009E-02  -1.03806656E-06
   2.30999999E-02  -1.04586024E-06
   2.31500007E-02  -1.05330855E-06
   2.31999997E-02  -1.06039772E-06
   2.32500006E-02  -1.06711366E-06
   2.32999995E-02  -1.07344226E-06
   2.33500004E-02  -1.07936910E-06
   2.33999994E-02  -1.08487984E-06
   2.34500002E-02  -1.08995982E-06
   2.34999992E-02  -1.09459427E-06
   2.35500000E-02  -1.09876828E-06
   2.36000009E-02  -1.10246719E-06
   2.36499999E-02  -1.10567578E-06
   2.37000007E-02  -1.10837880E-06
   2.37499997E-02  -1.11056113E-06
   2.38000005E-02  -1.11220731E-06
   2.38499995E-02  -1.11330189E-06
   2.39000004E-02  -1.11382940E-06
   2.39499994E-02  -1.11377415E-06
   2.40000002E-02  -1.11312067E-06
   2.40499992E-02  -1.11185318E-06
   2.41000000E-02  -1.10995575E-06
   2.41500009E-02  -1.10741291E-06
   2.41999999E-02  -1.10420865E-06
   2.42500007E-02  -1.10032704E-06
   2.42999997E-02  -1.09575228E-06
   2.43500005E-02  -1.09046869E-06
   2.43999995E-02  -1.08446022E-06
   2.44500004E-02  -1.07771132E-06
   2.44999994E-02  -1.07020583E-06
   2.45500002E-02  -1.06192806E-06
   2.45999992E-02  -1.05286244E-06
   2.46500000E-02  -1.04299318E-06
   2.47000009E-02  -1.03230468E-06
   2.47499999E-02  -1.02078150E-06
   2.48000007E-02  -1.00840805E-06
   2.48499997E-02  -9.95168875E-07
   2.49000005E-02  -9.81048970E-07
   2.49499995E-02  -9.66033213E-07
   2.50000004E-02  -9.50106596E-07
   2.50499994E-02  -9.33254285E-07
   2.51000002E-02  -9.15461442E-07
   2.51499992E-02  -8.96713630E-07
   2.52000000E-02  -8.76996580E-07
   2.52500009E-02  -8.56296083E-07
   2.52999999E-02  -8.34598154E-07
   2.53500007E-02  -8.11888981E-07
   2.53999997E-02  -7.88155035E-07
   2.54500005E-02  -7.63383241E-07
   2.54999995E-02  -7.37560583E-07
   2.55500004E-02  -7.10674215E-07
   2.55999994E-02  -6.82711686E-07
   2.56500002E-02  -6.53660948E-07
   2.56999992E-02  -6.23510005E-07
   2.57500000E-02  -5.92247432E-07
   2.58000009E-02  -5.59862031E-07
   2.58499999E-02  -5.26342944E-07
   2.59000007E-02  -4.91679657E-07
   2.59499997E-02  -4.55862079E-07
   2.60000005E-02  -4.18880575E-07
   2.60499995E-02  -3.80725737E-07
   2.61000004E-02  -3.41388585E-07
   2.61499994E-02  -3.00860648E-07
   2.62000002E-02  -2.59134083E-07
   2.62499992E-02  -2.16201329E-07
   2.63000000E-02  -1.72055181E-07
   2.63500009E-02  -1.26689159E-07
   2.63999999E-02  -8.00971307E-08
   2.64500007E-02  -3.22735971E-08
   2.64999997E-02   1.67865135E-08
   2.65500005E-02   6.70878606E-08
   2.65999995E-02   1.18634368E-07
   2.66500004E-02   1.71429136E-07
   2.66999993E-02   2.25475034E-07
   2.67500002E-02   2.80774429E-07
   2.67999992E-02   3.37328771E-07
   2.68500000E-02   3.95138898E-07
   2.69000009E-02   4.54205150E-07
   2.69499999E-02   5.14527017E-07
   2.70000007E-02   5.76103616E-07
   2.70499997E-02   6.38933045E-07
   2.71000005E-02   7.03012859E-07
   2.71499995E-02   7.68339987E-07
   2.72000004E-02   8.34910566E-07
   2.72499993E-02   9.02720160E-07
   2.73000002E-02   9.71763370E-07
   2.73499992E-02   1.04203377E-06
   2.74000000E-02   1.11352460E-06
   2.74500009E-02   1.18622836E-06
   2.74999999E-02   1.26013640E-06
   2.75500007E-02   1.33523940E-06
   2.75999997E-02   1.41152736E-06
   2.76500005E-02   1.48898914E-06
   2.76999995E-02   1.56761325E-06
   2.77500004E-02   1.64738697E-06
   2.77999993E-02   1.72829664E-06
   2.78500002E-02   1.81032794E-06
   2.78999992E-02   1.89346565E-06
   2.79500000E-02   1.97769350E-06
   2.80000009E-02   2.06299433E-06
   2.80499998E-02   2.14935039E-06
   2.81000007E-02   2.23674283E-06
   2.81499997E-02   2.32515163E-06
   2.82000005E-02   2.41455587E-06
   2.82499995E-02   2.50493395E-06
   2.83000004E-02   2.59626336E-06
   2.83499993E-02   2.68852023E-06
   2.84000002E-02   2.78168022E-06
   2.84499992E-02   2.87571766E-06
   2.85000000E-02   2.97060592E-06
   2.85500009E-02   3.06631728E-06
   2.85999998E-02   3.16282353E-06
   2.86500007E-02   3.26009490E-06
   2.86999997E-02   3.35810114E-06
   2.87500005E-02   3.45681065E-06
   2.87999995E-02   3.55619068E-06
   2.88500004E-02   3.65620804E-06
   2.88999993E-02   3.75682794E-06
   2.89500002E-02   3.85801513E-06
   2.89999992E-02   3.95973302E-06
   2.90500000E-02   4.06194386E-06
   2.91000009E-02   4.16460944E-06
   2.91499998E-02   4.26768975E-06
   2.92000007E-02   4.37114431E-06
   2.92499997E-02   4.47493176E-06
   2.93000005E-02   4.57900933E-06
   2.93499995E-02   4.68333428E-06
   2.94000003E-02   4.78786069E-06
   2.94499993E-02   4.89254398E-06
   2.95000002E-02   4.99733778E-06
   2.95499992E-02   5.10219388E-06
   2.96000000E-02   5.20706453E-06
   2.96500009E-02   5.31189926E-06
   2.96999998E-02   5.41664895E-06
   2.97500007E-02   5.52126130E-06
   2.97999997E-02   5.62568448E-06
   2.98500005E-02   5.72986528E-06
   2.98999995E-02   5.83374958E-06
   2.99500003E-02   5.93728237E-06
   2.99999993E-02   6.04040770E-06
   3.00500002E-02   6.14306873E-06
   3.00999992E-02   6.24520726E-06
   3.01500000E-02   6.34676553E-06
   3.02000009E-02   6.44768397E-06
   3.02499998E-02   6.54790210E-06
   3.03000007E-02   6.64735899E-06
   3.03499997E-02   6.74599278E-06
   3.04000005E-02   6.84374118E-06
   3.04499995E-02   6.94054052E-06
   3.05000003E-02   7.03632668E-06
   3.05499993E-02   7.13103509E-06
   3.06000002E-02   7.22460027E-06
   3.06499992E-02   7.31695582E-06
   3.07000000E-02   7.40803443E-06
   3.07500008E-02   7.49776927E-06
   3.07999998E-02   7.58609121E-06
   3.08500007E-02   7.67293295E-06
   3.08999997E-02   7.75822355E-06
   3.09500005E-02   7.84189524E-06
   3.09999995E-02   7.92387618E-06
   3.10500003E-02   8.00409543E-06
   3.10999993E-02   8.08248296E-06
   3.11500002E-02   8.15896510E-06
   3.11999992E-02   8.23347091E-06
   3.12500000E-02   8.30592762E-06
   3.13000008E-02   8.37626249E-06
   3.13500017E-02   8.44440274E-06
   3.13999988E-02   8.51027289E-06
   3.14499997E-02   8.57380110E-06
   3.15000005E-02   8.63491277E-06
   3.15500014E-02   8.69353426E-06
   3.15999985E-02   8.74959005E-06
   3.16499993E-02   8.80300649E-06
   3.17000002E-02   8.85370810E-06
   3.17500010E-02   8.90162210E-06
   3.18000019E-02   8.94667119E-06
   3.18499990E-02   8.98878261E-06
   3.18999998E-02   9.02788179E-06
   3.19500007E-02   9.06389323E-06
   3.20000015E-02   9.09674327E-06
   3.20499986E-02   9.12635824E-06
   3.20999995E-02   9.15266264E-06
   3.21500003E-02   9.17558282E-06
   3.22000012E-02   9.19504691E-06
   3.22499983E-02   9.21098126E-06
   3.22999991E-02   9.22331128E-06
   3.23500000E-02   9.23196512E-06
   3.24000008E-02   9.23687276E-06
   3.24500017E-02   9.23796142E-06
   3.24999988E-02   9.23516109E-06
   3.25499997E-02   9.22840081E-06
   3.26000005E-02   9.21761148E-06
   3.26500013E-02   9.20272123E-06
   3.26999985E-02   9.18366550E-06
   3.27499993E-02   9.16037425E-06
   3.28000002E-02   9.13278200E-06
   3.28500010E-02   9.10082326E-06
   3.29000019E-02   9.06443165E-06
   3.29499990E-02   9.02354441E-06
   3.29999998E-02   8.97809787E-06
   3.30500007E-02   8.92802836E-06
   3.31000015E-02   8.87327678E-06
   3.31499986E-02   8.81378310E-06
   3.31999995E-02   8.74948728E-06
   3.32500003E-02   8.68033203E-06
   3.33000012E-02   8.60626096E-06
   3.33499983E-02   8.52722133E-06
   3.33999991E-02   8.44315764E-06
   3.34500000E-02   8.35401624E-06
   3.35000008E-02   8.25974803E-06
   3.35500017E-02   8.16030388E-06
   3.35999988E-02   8.05563650E-06
   3.36499996E-02   7.94569860E-06
   3.37000005E-02   7.83044470E-06
   3.37500013E-02   7.70983297E-06
   3.37999985E-02   7.58382203E-06
   3.38499993E-02   7.45237276E-06
   3.39000002E-02   7.31544742E-06
   3.39500010E-02   7.17300964E-06
   3.40000018E-02   7.02502530E-06
   3.40499990E-02   6.87146348E-06
   3.40999998E-02   6.71229418E-06
   3.41500007E-02   6.54748919E-06
   3.42000015E-02   6.37702306E-06
   3.42499986E-02   6.20087030E-06
   3.42999995E-02   6.01901002E-06
   3.43500003E-02   5.83142355E-06
   3.44000012E-02   5.63809454E-06
   3.44499983E-02   5.43900615E-06
   3.44999991E-02   5.23414656E-06
   3.45500000E-02   5.02350440E-06
   3.46000008E-02   4.80707331E-06
   3.46500017E-02   4.58484783E-06
   3.46999988E-02   4.35682387E-06
   3.47499996E-02   4.12300142E-06
   3.48000005E-02   3.88338276E-06
   3.48500013E-02   3.63797199E-06
   3.48999985E-02   3.38677842E-06
   3.49499993E-02   3.12981138E-06
   3.50000001E-02   2.86708223E-06
   3.50500010E-02   2.59860576E-06
   3.51000018E-02   2.32440220E-06
   3.51499990E-02   2.04449179E-06
   3.51999998E-02   1.75889727E-06
   3.52500007E-02   1.46764546E-06
   3.53000015E-02   1.17076627E-06
   3.53499986E-02   8.68291636E-07
   3.53999995E-02   5.60256296E-07
   3.54500003E-02   2.46698335E-07
   3.55000012E-02  -7.23421678E-08
   3.55499983E-02  -3.96820298E-07
   3.55999991E-02  -7.26688938E-07
   3.56500000E-02  -1.06189850E-06
   3.57000008E-02  -1.40239536E-06
   3.57500017E-02  -1.74812408E-06
   3.57999988E-02  -2.09902487E-06
   3.58499996E-02  -2.45503611E-06
   3.59000005E-02  -2.81609277E-06
   3.59500013E-02  -3.18212574E-06
   3.59999985E-02  -3.55306429E-06
   3.60499993E-02  -3.92883339E-06
   3.61000001E-02  -4.30935506E-06
   3.61500010E-02  -4.69454926E-06
   3.62000018E-02  -5.08433095E-06
   3.62499990E-02  -5.47861373E-06
   3.62999998E-02  -5.87730665E-06
   3.63500006E-02  -6.28031785E-06
   3.64000015E-02  -6.68754910E-06
   3.64499986E-02  -7.09890082E-06
   3.64999995E-02  -7.51427069E-06
   3.65500003E-02  -7.93355321E-06
   3.66000012E-02  -8.35663650E-06
   3.66499983E-02  -8.78341143E-06
   3.66999991E-02  -9.21376250E-06
   3.67500000E-02  -9.64756964E-06
   3.68000008E-02  -1.00847119E-05
   3.68500017E-02  -1.05250665E-05
   3.68999988E-02  -1.09685061E-05
   3.69499996E-02  -1.14148979E-05
   3.70000005E-02  -1.18641074E-05
   3.70500013E-02  -1.23160007E-05
   3.70999984E-02  -1.27704379E-05
   3.71499993E-02  -1.32272753E-05
   3.72000001E-02  -1.36863700E-05
   3.72500010E-02  -1.41475712E-05
   3.73000018E-02  -1.46107286E-05
   3.73499990E-02  -1.50756878E-05
   3.73999998E-02  -1.55422931E-05
   3.74500006E-02  -1.60103846E-05
   3.75000015E-02  -1.64798003E-05
   3.75499986E-02  -1.69503764E-05
   3.75999995E-02  -1.74219458E-05
   3.76500003E-02  -1.78943355E-05
   3.77000012E-02  -1.83673765E-05
   3.77499983E-02  -1.88408922E-05
   3.77999991E-02  -1.93147043E-05
   3.78500000E-02  -1.97886347E-05
   3.79000008E-02  -2.02624997E-05
   3.79500017E-02  -2.07361172E-05
   3.79999988E-02  -2.12093000E-05
   3.80499996E-02  -2.16818571E-05
   3.81000005E-02  -2.21535993E-05
   3.81500013E-02  -2.26243319E-05
   3.81999984E-02  -2.30938622E-05
   3.82499993E-02  -2.35619900E-05
   3.83000001E-02  -2.40285208E-05
   3.83500010E-02  -2.44932507E-05
   3.84000018E-02  -2.49559780E-05
   3.84499989E-02  -2.54164970E-05
   3.84999998E-02  -2.58746040E-05
   3.85500006E-02  -2.63300935E-05
   3.86000015E-02  -2.67827527E-05
   3.86499986E-02  -2.72323741E-05
   3.86999995E-02  -2.76787468E-05
   3.87500003E-02  -2.81216562E-05
   3.88000011E-02  -2.85608876E-05
   3.88499983E-02  -2.89962300E-05
   3.88999991E-02  -2.94274632E-05
   3.89500000E-02  -2.98543728E-05
   3.90000008E-02  -3.02767385E-05
   3.90500017E-02  -3.06943475E-05
   3.90999988E-02  -3.11069743E-05
   3.91499996E-02  -3.15144025E-05
   3.92000005E-02  -3.19164101E-05
   3.92500013E-02  -3.23127788E-05
   3.92999984E-02  -3.27032867E-05
   3.93499993E-02  -3.30877083E-05
   3.94000001E-02  -3.34658289E-05
   3.94500010E-02  -3.38374230E-05
   3.95000018E-02  -3.42022722E-05
   3.95499989E-02  -3.45601547E-05
   3.95999998E-02  -3.49108486E-05
   3.96500006E-02  -3.52541319E-05
   3.97000015E-02  -3.55897864E-05
   3.97499986E-02  -3.59175901E-05
   3.97999994E-02  -3.62373285E-05
   3.98500003E-02  -3.65487831E-05
   3.99000011E-02  -3.68517321E-05
   3.99499983E-02  -3.71459610E-05
   3.99999991E-02  -3.74312513E-05
   4.00500000E-02  -3.77073920E-05
   4.01000008E-02  -3.79741687E-05
   4.01500016E-02  -3.82313701E-05
   4.01999988E-02  -3.84787854E-05
   4.02499996E-02  -3.87162072E-05
   4.03000005E-02  -3.89434244E-05
   4.03500013E-02  -3.91602334E-05
   4.03999984E-02  -3.93664304E-05
   4.04499993E-02  -3.95618081E-05
   4.05000001E-02  -3.97461736E-05
   4.05500010E-02  -3.99193341E-05
   4.06000018E-02  -4.00810823E-05
   4.06499989E-02  -4.02312326E-05
   4.06999998E-02  -4.03695849E-05
   4.07500006E-02  -4.04959574E-05
   4.08000015E-02  -4.06101681E-05
   4.08499986E-02  -4.07120278E-05
   4.08999994E-02  -4.08013584E-05
   4.09500003E-02  -4.08779779E-05
   4.10000011E-02  -4.09417225E-05
   4.10499983E-02  -4.09924141E-05
   4.10999991E-02  -4.10298853E-05
   4.11499999E-02  -4.10539724E-05
   4.12000008E-02  -4.10645152E-05
   4.12500016E-02  -4.10613575E-05
   4.12999988E-02  -4.10443390E-05
   4.13499996E-02  -4.10133107E-05
   4.14000005E-02  -4.09681343E-05
   4.14500013E-02  -4.09086570E-05
   4.14999984E-02  -4.08347441E-05
   4.15499993E-02  -4.07462612E-05
   4.16000001E-02  -4.06430736E-05
   4.16500010E-02  -4.05250576E-05
   4.17000018E-02  -4.03920894E-05
   4.17499989E-02  -4.02440564E-05
   4.17999998E-02  -4.00808385E-05
   4.18500006E-02  -3.99023265E-05
   4.19000015E-02  -3.97084259E-05
   4.19499986E-02  -3.94990311E-05
   4.19999994E-02  -3.92740440E-05
   4.20500003E-02  -3.90333771E-05
   4.21000011E-02  -3.87769433E-05
   4.21499982E-02  -3.85046660E-05
   4.21999991E-02  -3.82164653E-05
   4.22499999E-02  -3.79122721E-05
   4.23000008E-02  -3.75920281E-05
   4.23500016E-02  -3.72556715E-05
   4.23999988E-02  -3.69031477E-05
   4.24499996E-02  -3.65344022E-05
   4.25000004E-02  -3.61493949E-05
   4.25500013E-02  -3.57480894E-05
   4.25999984E-02  -3.53304567E-05
   4.26499993E-02  -3.48964641E-05
   4.27000001E-02  -3.44460859E-05
   4.27500010E-02  -3.39793114E-05
   4.28000018E-02  -3.34961333E-05