   0.00000000       0.00000000    
   4.99999987E-05   0.00000000    
   9.99999975E-05   0.00000000    
   1.50000007E-04   0.00000000    
   1.99999995E-04   8.84632563E-26
   2.50000012E-04   9.14642903E-25
   3.00000014E-04   5.10776274E-24
   3.49999988E-04   2.05334751E-23
   3.99999990E-04   6.66646977E-23
   4.49999992E-04   1.85790173E-22
   5.00000024E-04   4.61285973E-22
   5.49999997E-04   1.04573148E-21
   6.00000028E-04   2.20226014E-21
   6.50000002E-04   4.36321617E-21
   6.99999975E-04   8.21086860E-21
   7.50000007E-04   1.47857355E-20
   7.99999980E-04   2.56288035E-20
   8.50000011E-04   4.29649242E-20
   8.99999985E-04   6.99354001E-20
   9.50000016E-04   1.10888834E-19
   1.00000005E-03   1.71739950E-19
   1.04999996E-03   2.60407469E-19
   1.09999999E-03   3.87343038E-19
   1.15000003E-03   5.66164184E-19
   1.20000006E-03   8.14405635E-19
   1.24999997E-03   1.15440189E-18
   1.30000000E-03   1.61432093E-18
   1.35000004E-03   2.22936363E-18
   1.39999995E-03   3.04315032E-18
   1.44999998E-03   4.10930631E-18
   1.50000001E-03   5.49327956E-18
   1.55000004E-03   7.27439092E-18
   1.59999996E-03   9.54816566E-18
   1.64999999E-03   1.24289694E-17
   1.70000002E-03   1.60529221E-17
   1.75000005E-03   2.05811867E-17
   1.79999997E-03   2.62036409E-17
   1.85000000E-03   3.31428904E-17
   1.90000003E-03   4.16587678E-17
   1.94999995E-03   5.20532517E-17
   2.00000009E-03   6.46758823E-17
   2.05000001E-03   7.99296553E-17
   2.09999993E-03   9.82775205E-17
   2.15000007E-03   1.20249403E-16
   2.19999999E-03   1.46449972E-16
   2.24999990E-03   1.77566733E-16
   2.30000005E-03   2.14379142E-16
   2.34999997E-03   2.57768378E-16
   2.40000011E-03   3.08727548E-16
   2.45000003E-03   3.68372988E-16
   2.49999994E-03   4.37956374E-16
   2.55000009E-03   5.18877402E-16
   2.60000001E-03   6.12697471E-16
   2.64999992E-03   7.21154269E-16
   2.70000007E-03   8.46177762E-16
   2.74999999E-03   9.89906336E-16
   2.79999990E-03   1.15470432E-15
   2.85000005E-03   1.34318038E-15
   2.89999996E-03   1.55820753E-15
   2.95000011E-03   1.80294393E-15
   3.00000003E-03   2.08085438E-15
   3.04999994E-03   2.39573168E-15
   3.10000009E-03   2.75172311E-15
   3.15000000E-03   3.15335543E-15
   3.19999992E-03   3.60555922E-15
   3.25000007E-03   4.11369852E-15
   3.29999998E-03   4.68359923E-15
   3.34999990E-03   5.32157766E-15
   3.40000005E-03   6.03447490E-15
   3.44999996E-03   6.82968679E-15
   3.50000011E-03   7.71519706E-15
   3.55000002E-03   8.69961536E-15
   3.59999994E-03   9.79220909E-15
   3.65000009E-03   1.10029478E-14
   3.70000000E-03   1.23425338E-14
   3.74999992E-03   1.38224495E-14
   3.80000006E-03   1.54549936E-14
   3.84999998E-03   1.72533242E-14
   3.89999989E-03   1.92315019E-14
   3.94999981E-03   2.14045395E-14
   4.00000019E-03   2.37884460E-14
   4.05000011E-03   2.64002534E-14
   4.10000002E-03   2.92581003E-14
   4.14999994E-03   3.23812564E-14
   4.19999985E-03   3.57901778E-14
   4.25000023E-03   3.95065518E-14
   4.30000015E-03   4.35533567E-14
   4.35000006E-03   4.79549058E-14
   4.39999998E-03   5.27369049E-14
   4.44999989E-03   5.79265097E-14
   4.49999981E-03   6.35523603E-14
   4.55000019E-03   6.96446617E-14
   4.60000010E-03   7.62352150E-14
   4.65000002E-03   8.33574949E-14
   4.69999993E-03   9.10466635E-14
   4.74999985E-03   9.93396785E-14
   4.80000023E-03   1.08275300E-13
   4.85000014E-03   1.17894152E-13
   4.90000006E-03   1.28238837E-13
   4.94999997E-03   1.39353874E-13
   4.99999989E-03   1.51285844E-13
   5.04999980E-03   1.64083401E-13
   5.10000018E-03   1.77797366E-13
   5.15000010E-03   1.92480675E-13
   5.20000001E-03   2.08188515E-13
   5.24999993E-03   2.24978348E-13
   5.29999984E-03   2.42909940E-13
   5.35000023E-03   2.62045458E-13
   5.40000014E-03   2.82449357E-13
   5.45000006E-03   3.04188668E-13
   5.49999997E-03   3.27332833E-13
   5.54999989E-03   3.51953791E-13
   5.59999980E-03   3.78125943E-13
   5.65000018E-03   4.05926323E-13
   5.70000010E-03   4.35434485E-13
   5.75000001E-03   4.66732610E-13
   5.79999993E-03   4.99905510E-13
   5.84999984E-03   5.35040599E-13
   5.90000022E-03   5.72227866E-13
   5.95000014E-03   6.11559956E-13
   6.00000005E-03   6.53132171E-13
   6.04999997E-03   6.97042305E-13
   6.09999988E-03   7.43390755E-13
   6.14999980E-03   7.92280575E-13
   6.20000018E-03   8.43817366E-13
   6.25000009E-03   8.98109332E-13
   6.30000001E-03   9.55267007E-13
   6.34999992E-03   1.01540336E-12
   6.39999984E-03   1.07863393E-12
   6.45000022E-03   1.14507644E-12
   6.50000013E-03   1.21485070E-12
   6.55000005E-03   1.28807891E-12
   6.59999996E-03   1.36488553E-12
   6.64999988E-03   1.44539665E-12
   6.69999979E-03   1.52974042E-12
   6.75000018E-03   1.61804663E-12
   6.80000009E-03   1.71044721E-12
   6.85000001E-03   1.80707511E-12
   6.89999992E-03   1.90806485E-12
   6.94999984E-03   2.01355230E-12
   7.00000022E-03   2.12367428E-12
   7.05000013E-03   2.23856892E-12
   7.10000005E-03   2.35837500E-12
   7.14999996E-03   2.48323107E-12
   7.19999988E-03   2.61327722E-12
   7.24999979E-03   2.74865287E-12
   7.30000017E-03   2.88949767E-12
   7.35000009E-03   3.03595105E-12
   7.40000000E-03   3.18815178E-12
   7.44999992E-03   3.34623778E-12
   7.49999983E-03   3.51034566E-12
   7.55000021E-03   3.68061094E-12
   7.60000013E-03   3.85716762E-12
   7.65000004E-03   4.04014756E-12
   7.69999996E-03   4.22967954E-12
   7.74999987E-03   4.42589064E-12
   7.79999979E-03   4.62890533E-12
   7.84999970E-03   4.83884417E-12
   7.89999962E-03   5.05582295E-12
   7.95000046E-03   5.27995529E-12
   8.00000038E-03   5.51134876E-12
   8.05000030E-03   5.75010612E-12
   8.10000021E-03   5.99632583E-12
   8.15000013E-03   6.25009983E-12
   8.20000004E-03   6.51151485E-12
   8.24999996E-03   6.78064766E-12
   8.29999987E-03   7.05757197E-12
   8.34999979E-03   7.34235155E-12
   8.39999970E-03   7.63504017E-12
   8.44999962E-03   7.93568683E-12
   8.50000046E-03   8.24432883E-12
   8.55000038E-03   8.56099566E-12
   8.60000029E-03   8.88570294E-12
   8.65000021E-03   9.21845759E-12
   8.70000012E-03   9.55925530E-12
   8.75000004E-03   9.90807783E-12
   8.79999995E-03   1.02648948E-11
   8.84999987E-03   1.06296656E-11
   8.89999978E-03   1.10023301E-11
   8.94999970E-03   1.13828157E-11
   8.99999961E-03   1.17710364E-11
   9.05000046E-03   1.21668882E-11
   9.10000037E-03   1.25702530E-11
   9.15000029E-03   1.29809948E-11
   9.20000020E-03   1.33989564E-11
   9.25000012E-03   1.38239654E-11
   9.30000003E-03   1.42558292E-11
   9.34999995E-03   1.46943343E-11
   9.39999986E-03   1.51392458E-11
   9.44999978E-03   1.55903051E-11
   9.49999969E-03   1.60472382E-11
   9.54999961E-03   1.65097415E-11
   9.60000046E-03   1.69774923E-11
   9.65000037E-03   1.74501420E-11
   9.70000029E-03   1.79273194E-11
   9.75000020E-03   1.84086201E-11
   9.80000012E-03   1.88936210E-11
   9.85000003E-03   1.93818694E-11
   9.89999995E-03   1.98728759E-11
   9.94999986E-03   2.03661341E-11
   9.99999978E-03   2.08611062E-11
   1.00499997E-02   2.13572198E-11
   1.00999996E-02   2.18538746E-11
   1.01500005E-02   2.23504392E-11
   1.02000004E-02   2.28462457E-11
   1.02500003E-02   2.33405968E-11
   1.03000002E-02   2.38327604E-11
   1.03500001E-02   2.43219715E-11
   1.04000000E-02   2.48074252E-11
   1.04499999E-02   2.52882888E-11
   1.04999999E-02   2.57636863E-11
   1.05499998E-02   2.62327139E-11
   1.05999997E-02   2.66944262E-11
   1.06499996E-02   2.71478309E-11
   1.07000005E-02   2.75919045E-11
   1.07500004E-02   2.80255888E-11
   1.08000003E-02   2.84477823E-11
   1.08500002E-02   2.88573367E-11
   1.09000001E-02   2.92530757E-11
   1.09500000E-02   2.96337711E-11
   1.09999999E-02   2.99981533E-11
   1.10499999E-02   3.03449245E-11
   1.10999998E-02   3.06727282E-11
   1.11499997E-02   3.09801768E-11
   1.11999996E-02   3.12658371E-11
   1.12500004E-02   3.15282349E-11
   1.13000004E-02   3.17658504E-11
   1.13500003E-02   3.19771154E-11
   1.14000002E-02   3.21604340E-11
   1.14500001E-02   3.23141548E-11
   1.15000000E-02   3.24365847E-11
   1.15499999E-02   3.25259888E-11
   1.15999999E-02   3.25805841E-11
   1.16499998E-02   3.25985627E-11
   1.16999997E-02   3.25780514E-11
   1.17499996E-02   3.25171522E-11
   1.18000004E-02   3.24139188E-11
   1.18500004E-02   3.22663528E-11
   1.19000003E-02   3.20724246E-11
   1.19500002E-02   3.18300594E-11
   1.20000001E-02   3.15371444E-11
   1.20500000E-02   3.11915285E-11
   1.20999999E-02   3.07910294E-11
   1.21499998E-02   3.03334059E-11
   1.21999998E-02   2.98163785E-11
   1.22499997E-02   2.92376505E-11
   1.22999996E-02   2.85948973E-11
   1.23500004E-02   2.78857250E-11
   1.24000004E-02   2.71077084E-11
   1.24500003E-02   2.62584173E-11
   1.25000002E-02   2.53353866E-11
   1.25500001E-02   2.43360887E-11
   1.26000000E-02   2.32579997E-11
   1.26499999E-02   2.20985660E-11
   1.26999998E-02   2.08551874E-11
   1.27499998E-02   1.95252599E-11
   1.27999997E-02   1.81061277E-11
   1.28499996E-02   1.65951385E-11
   1.29000004E-02   1.49896224E-11
   1.29500004E-02   1.32868733E-11
   1.30000003E-02   1.14841851E-11
   1.30500002E-02   9.57883686E-12
   1.31000001E-02   7.56809719E-12
   1.31500000E-02   5.44922484E-12
   1.31999999E-02   3.21946267E-12
   1.32499998E-02   8.76044517E-13
   1.32999998E-02  -1.58378020E-12
   1.33499997E-02  -4.16276432E-12
   1.33999996E-02  -6.86364680E-12
   1.34500004E-02  -9.68915399E-12
   1.35000004E-02  -1.26420393E-11
   1.35500003E-02  -1.57250393E-11
   1.36000002E-02  -1.89408610E-11
   1.36500001E-02  -2.22921872E-11
   1.37000000E-02  -2.57816719E-11
   1.37499999E-02  -2.94119798E-11
   1.37999998E-02  -3.31857285E-11
   1.38499998E-02  -3.71054888E-11
   1.38999997E-02  -4.11738248E-11
   1.39499996E-02  -4.53932274E-11
   1.40000004E-02  -4.97661599E-11
   1.40500003E-02  -5.42950372E-11
   1.41000003E-02  -5.89822496E-11
   1.41500002E-02  -6.38301009E-11
   1.42000001E-02  -6.88408358E-11
   1.42500000E-02  -7.40166817E-11
   1.42999999E-02  -7.93597202E-11
   1.43499998E-02  -8.48720261E-11
   1.43999998E-02  -9.05555977E-11
   1.44499997E-02  -9.64123087E-11
   1.44999996E-02  -1.02443963E-10
   1.45500004E-02  -1.08652302E-10
   1.46000003E-02  -1.15038930E-10
   1.46500003E-02  -1.21605406E-10
   1.47000002E-02  -1.28353148E-10
   1.47500001E-02  -1.35283451E-10
   1.48000000E-02  -1.42397566E-10
   1.48499999E-02  -1.49696519E-10
   1.48999998E-02  -1.57181324E-10
   1.49499997E-02  -1.64852826E-10
   1.49999997E-02  -1.72711748E-10
   1.50499996E-02  -1.80758603E-10
   1.51000004E-02  -1.88993834E-10
   1.51500003E-02  -1.97417749E-10
   1.52000003E-02  -2.06030415E-10
   1.52500002E-02  -2.14831763E-10
   1.53000001E-02  -2.23821642E-10
   1.53500000E-02  -2.32999647E-10
   1.53999999E-02  -2.42365211E-10
   1.54499998E-02  -2.51917598E-10
   1.54999997E-02  -2.61655919E-10
   1.55499997E-02  -2.71579009E-10
   1.55999996E-02  -2.81685564E-10
   1.56500004E-02  -2.91974084E-10
   1.56999994E-02  -3.02442849E-10
   1.57500003E-02  -3.13089915E-10
   1.57999992E-02  -3.23913202E-10
   1.58500001E-02  -3.34910294E-10
   1.59000009E-02  -3.46078582E-10
   1.59499999E-02  -3.57415209E-10
   1.60000008E-02  -3.68917091E-10
   1.60499997E-02  -3.80580928E-10
   1.61000006E-02  -3.92403138E-10
   1.61499996E-02  -4.04379918E-10
   1.62000004E-02  -4.16507162E-10
   1.62499994E-02  -4.28780567E-10
   1.63000003E-02  -4.41195414E-10
   1.63499992E-02  -4.53746818E-10
   1.64000001E-02  -4.66429673E-10
   1.64500009E-02  -4.79238482E-10
   1.64999999E-02  -4.92167473E-10
   1.65500008E-02  -5.05210596E-10
   1.65999997E-02  -5.18361520E-10
   1.66500006E-02  -5.31613586E-10
   1.66999996E-02  -5.44959855E-10
   1.67500004E-02  -5.58393110E-10
   1.67999994E-02  -5.71905745E-10
   1.68500002E-02  -5.85489934E-10
   1.68999992E-02  -5.99137351E-10
   1.69500001E-02  -6.12839557E-10
   1.70000009E-02  -6.26587671E-10
   1.70499999E-02  -6.40372588E-10
   1.71000008E-02  -6.54184706E-10
   1.71499997E-02  -6.68014144E-10
   1.72000006E-02  -6.81850798E-10
   1.72499996E-02  -6.95684177E-10
   1.73000004E-02  -7.09503345E-10
   1.73499994E-02  -7.23297089E-10
   1.74000002E-02  -7.37053918E-10
   1.74499992E-02  -7.50761786E-10
   1.75000001E-02  -7.64408536E-10
   1.75500009E-02  -7.77981624E-10
   1.75999999E-02  -7.91468169E-10
   1.76500008E-02  -8.04854738E-10
   1.76999997E-02  -8.18127788E-10
   1.77500006E-02  -8.31273383E-10
   1.77999996E-02  -8.44277148E-10
   1.78500004E-02  -8.57124483E-10
   1.78999994E-02  -8.69800232E-10
   1.79500002E-02  -8.82289186E-10
   1.79999992E-02  -8.94575580E-10
   1.80500001E-02  -9.06643316E-10
   1.81000009E-02  -9.18476128E-10
   1.81499999E-02  -9.30057253E-10
   1.82000007E-02  -9.41369649E-10
   1.82499997E-02  -9.52395940E-10
   1.83000006E-02  -9.63118474E-10
   1.83499996E-02  -9.73519154E-10
   1.84000004E-02  -9.83579773E-10
   1.84499994E-02  -9.93281679E-10
   1.85000002E-02  -1.00260589E-09
   1.85499992E-02  -1.01153319E-09
   1.86000001E-02  -1.02004405E-09
   1.86500009E-02  -1.02811859E-09
   1.86999999E-02  -1.03573672E-09
   1.87500007E-02  -1.04287823E-09
   1.87999997E-02  -1.04952225E-09
   1.88500006E-02  -1.05564824E-09
   1.88999996E-02  -1.06123477E-09
   1.89500004E-02  -1.06626052E-09
   1.89999994E-02  -1.07070397E-09
   1.90500002E-02  -1.07454323E-09
   1.90999992E-02  -1.07775633E-09
   1.91500001E-02  -1.08032094E-09
   1.92000009E-02  -1.08221465E-09
   1.92499999E-02  -1.08341502E-09
   1.93000007E-02  -1.08389908E-09
   1.93499997E-02  -1.08364406E-09
   1.94000006E-02  -1.08262677E-09
   1.94499996E-02  -1.08082421E-09
   1.95000004E-02  -1.07821296E-09
   1.95499994E-02  -1.07476961E-09
   1.96000002E-02  -1.07047071E-09
   1.96499992E-02  -1.06529274E-09
   1.97000001E-02  -1.05921205E-09
   1.97500009E-02  -1.05220510E-09
   1.97999999E-02  -1.04424824E-09
   1.98500007E-02  -1.03531783E-09
   1.98999997E-02  -1.02539000E-09
   1.99500006E-02  -1.01444120E-09
   1.99999996E-02  -1.00244812E-09
   2.00500004E-02  -9.89387017E-10
   2.00999994E-02  -9.75234560E-10
   2.01500002E-02  -9.59967550E-10
   2.01999992E-02  -9.43562672E-10
   2.02500001E-02  -9.25997001E-10
   2.03000009E-02  -9.07247610E-10
   2.03499999E-02  -8.87291851E-10
   2.04000007E-02  -8.66107241E-10
   2.04499997E-02  -8.43671577E-10
   2.05000006E-02  -8.19962875E-10
   2.05499995E-02  -7.94959487E-10
   2.06000004E-02  -7.68639929E-10
   2.06499994E-02  -7.40983275E-10
   2.07000002E-02  -7.11968651E-10
   2.07499992E-02  -6.81575851E-10
   2.08000001E-02  -6.49784893E-10
   2.08500009E-02  -6.16576235E-10
   2.08999999E-02  -5.81930781E-10
   2.09500007E-02  -5.45829937E-10
   2.09999997E-02  -5.08255493E-10
   2.10500006E-02  -4.69189965E-10
   2.10999995E-02  -4.28616309E-10
   2.11500004E-02  -3.86518151E-10
   2.11999994E-02  -3.42879530E-10
   2.12500002E-02  -2.97685238E-10
   2.12999992E-02  -2.50920784E-10
   2.13500001E-02  -2.02572237E-10
   2.14000009E-02  -1.52626453E-10
   2.14499999E-02  -1.01071047E-10
   2.15000007E-02  -4.78944592E-11
   2.15499997E-02   6.91416282E-12
   2.16000006E-02   6.33648273E-11
   2.16499995E-02   1.21466615E-10
   2.17000004E-02   1.81227797E-10
   2.17499994E-02   2.42655784E-10
   2.18000002E-02   3.05757003E-10
   2.18499992E-02   3.70536768E-10
   2.19000001E-02   4.36999548E-10
   2.19500009E-02   5.05148701E-10
   2.19999999E-02   5.74986725E-10
   2.20500007E-02   6.46514675E-10
   2.20999997E-02   7.19732607E-10
   2.21500006E-02   7.94639521E-10
   2.21999995E-02   8.71233252E-10
   2.22500004E-02   9.49510248E-10
   2.22999994E-02   1.02946618E-09
   2.23500002E-02   1.11109477E-09
   2.23999992E-02   1.19438892E-09
   2.24500000E-02   1.27934008E-09
   2.25000009E-02   1.36593825E-09
   2.25499999E-02   1.45417245E-09
   2.26000007E-02   1.54403001E-09
   2.26499997E-02   1.63549674E-09
   2.27000006E-02   1.72855719E-09
   2.27499995E-02   1.82319415E-09
   2.28000004E-02   1.91938887E-09
   2.28499994E-02   2.01712158E-09
   2.29000002E-02   2.11637063E-09
   2.29499992E-02   2.21711249E-09
   2.30000000E-02   2.31932296E-09
   2.30500009E-02   2.42297493E-09
   2.30999999E-02   2.52804067E-09
   2.31500007E-02   2.63449018E-09
   2.31999997E-02   2.74229195E-09
   2.32500006E-02   2.85141333E-09
   2.32999995E-02   2.96181857E-09
   2.33500004E-02   3.07347081E-09
   2.33999994E-02   3.18633187E-09
   2.34500002E-02   3.30036198E-09
   2.34999992E-02   3.41551876E-09
   2.35500000E-02   3.53175778E-09
   2.36000009E-02   3.64903419E-09
   2.36499999E-02   3.76729981E-09
   2.37000007E-02   3.88650490E-09
   2.37499997E-02   4.00659816E-09
   2.38000005E-02   4.12752588E-09
   2.38499995E-02   4.24923385E-09
   2.39000004E-02   4.37166392E-09
   2.39499994E-02   4.49475701E-09
   2.40000002E-02   4.61845273E-09
   2.40499992E-02   4.74268758E-09
   2.41000000E-02   4.86739626E-09
   2.41500009E-02   4.99251263E-09
   2.41999999E-02   5.11796738E-09
   2.42500007E-02   5.24368948E-09
   2.42999997E-02   5.36960609E-09
   2.43500005E-02   5.49564305E-09
   2.43999995E-02   5.62172309E-09
   2.44500004E-02   5.74776760E-09
   2.44999994E-02   5.87369575E-09
   2.45500002E-02   5.99942496E-09
   2.45999992E-02   6.12487039E-09
   2.46500000E-02   6.24994545E-09
   2.47000009E-02   6.37456177E-09
   2.47499999E-02   6.49862875E-09
   2.48000007E-02   6.62205402E-09
   2.48499997E-02   6.74474387E-09
   2.49000005E-02   6.86660151E-09
   2.49499995E-02   6.98752967E-09
   2.50000004E-02   7.10742798E-09
   2.50499994E-02   7.22619520E-09
   2.51000002E-02   7.34372785E-09
   2.51499992E-02   7.45992157E-09
   2.52000000E-02   7.57466800E-09
   2.52500009E-02   7.68785835E-09
   2.52999999E-02   7.79938425E-09
   2.53500007E-02   7.90913202E-09
   2.53999997E-02   8.01698885E-09
   2.54500005E-02   8.12283840E-09
   2.54999995E-02   8.22656432E-09
   2.55500004E-02   8.32804936E-09
   2.55999994E-02   8.42717274E-09
   2.56500002E-02   8.52381365E-09
   2.56999992E-02   8.61784866E-09
   2.57500000E-02   8.70915517E-09
   2.58000009E-02   8.79760620E-09
   2.58499999E-02   8.88307561E-09
   2.59000007E-02   8.96543728E-09
   2.59499997E-02   9.04456154E-09
   2.60000005E-02   9.12031695E-09
   2.60499995E-02   9.19257470E-09
   2.61000004E-02   9.26120158E-09
   2.61499994E-02   9.32606437E-09
   2.62000002E-02   9.38702982E-09
   2.62499992E-02   9.44396294E-09
   2.63000000E-02   9.49672874E-09
   2.63500009E-02   9.54519219E-09
   2.63999999E-02   9.58921653E-09
   2.64500007E-02   9.62866320E-09
   2.64999997E-02   9.66339542E-09
   2.65500005E-02   9.69327729E-09
   2.65999995E-02   9.71816938E-09
   2.66500004E-02   9.73793224E-09
   2.66999993E-02   9.75242997E-09
   2.67500002E-02   9.76152137E-09
   2.67999992E-02   9.76506875E-09
   2.68500000E-02   9.76293446E-09
   2.69000009E-02   9.75497993E-09
   2.69499999E-02   9.74106751E-09
   2.70000007E-02   9.72106040E-09
   2.70499997E-02   9.69482095E-09
   2.71000005E-02   9.66221414E-09
   2.71499995E-02   9.62310320E-09
   2.72000004E-02   9.57735402E-09
   2.72499993E-02   9.52483248E-09
   2.73000002E-02   9.46540535E-09
   2.73499992E-02   9.39894207E-09
   2.74000000E-02   9.32531030E-09
   2.74500009E-02   9.24438215E-09
   2.74999999E-02   9.15603149E-09
   2.75500007E-02   9.06012954E-09
   2.75999997E-02   8.95655283E-09
   2.76500005E-02   8.84517881E-09
   2.76999995E-02   8.72588579E-09
   2.77500004E-02   8.59855565E-09
   2.77999993E-02   8.46307024E-09
   2.78500002E-02   8.31931590E-09
   2.78999992E-02   8.16718071E-09
   2.79500000E-02   8.00655453E-09
   2.80000009E-02   7.83733167E-09
   2.80499998E-02   7.65940644E-09
   2.81000007E-02   7.47267759E-09
   2.81499997E-02   7.27704652E-09
   2.82000005E-02   7.07241776E-09
   2.82499995E-02   6.85869983E-09
   2.83000004E-02   6.63580257E-09
   2.83499993E-02   6.40364117E-09
   2.84000002E-02   6.16213303E-09
   2.84499992E-02   5.91120086E-09
   2.85000000E-02   5.65077052E-09
   2.85500009E-02   5.38077050E-09
   2.85999998E-02   5.10113685E-09
   2.86500007E-02   4.81180606E-09
   2.86999997E-02   4.51272042E-09
   2.87500005E-02   4.20382706E-09
   2.87999995E-02   3.88507848E-09
   2.88500004E-02   3.55643115E-09
   2.88999993E-02   3.21784577E-09
   2.89500002E-02   2.86928858E-09
   2.89999992E-02   2.51073073E-09
   2.90500000E-02   2.14214935E-09
   2.91000009E-02   1.76352655E-09
   2.91499998E-02   1.37485101E-09
   2.92000007E-02   9.76115966E-10
   2.92499997E-02   5.67320135E-10
   2.93000005E-02   1.48469279E-10
   2.93499995E-02  -2.80425932E-10
   2.94000003E-02  -7.19348026E-10
   2.94499993E-02  -1.16827270E-09
   2.95000002E-02  -1.62717007E-09
   2.95499992E-02  -2.09600337E-09
   2.96000000E-02  -2.57472887E-09
   2.96500009E-02  -3.06329717E-09
   2.96999998E-02  -3.56165231E-09
   2.97500007E-02  -4.06972900E-09
   2.97999997E-02  -4.58745619E-09
   2.98500005E-02  -5.11475706E-09
   2.98999995E-02  -5.65154412E-09
   2.99500003E-02  -6.19772544E-09
   2.99999993E-02  -6.75320022E-09
   3.00500002E-02  -7.31786010E-09
   3.00999992E-02  -7.89158872E-09
   3.01500000E-02  -8.47426307E-09
   3.02000009E-02  -9.06575170E-09
   3.02499998E-02  -9.66591429E-09
   3.03000007E-02  -1.02746043E-08
   3.03499997E-02  -1.08916636E-08
   3.04000005E-02  -1.15169296E-08
   3.04499995E-02  -1.21502293E-08
   3.05000003E-02  -1.27913822E-08
   3.05499993E-02  -1.34402001E-08
   3.06000002E-02  -1.40964813E-08
   3.06499992E-02  -1.47600225E-08
   3.07000000E-02  -1.54306061E-08
   3.07500008E-02  -1.61080109E-08
   3.07999998E-02  -1.67920025E-08
   3.08500007E-02  -1.74823391E-08
   3.08999997E-02  -1.81787705E-08
   3.09500005E-02  -1.88810390E-08
   3.09999995E-02  -1.95888745E-08
   3.10500003E-02  -2.03020001E-08
   3.10999993E-02  -2.10201296E-08
   3.11500002E-02  -2.17429683E-08
   3.11999992E-02  -2.24702106E-08
   3.12500000E-02  -2.32015456E-08
   3.13000008E-02  -2.39366482E-08
   3.13500017E-02  -2.46751881E-08
   3.13999988E-02  -2.54168242E-08
   3.14499997E-02  -2.61612119E-08
   3.15000005E-02  -2.69079852E-08
   3.15500014E-02  -2.76567800E-08
   3.15999985E-02  -2.84072197E-08
   3.16499993E-02  -2.91589206E-08
   3.17000002E-02  -2.99114866E-08
   3.17500010E-02  -3.06645127E-08
   3.18000019E-02  -3.14175956E-08
   3.18499990E-02  -3.21703055E-08
   3.18999998E-02  -3.29222161E-08
   3.19500007E-02  -3.36728903E-08
   3.20000015E-02  -3.44218805E-08
   3.20499986E-02  -3.51687319E-08
   3.20999995E-02  -3.59129793E-08
   3.21500003E-02  -3.66541570E-08
   3.22000012E-02  -3.73917786E-08
   3.22499983E-02  -3.81253642E-08
   3.22999991E-02  -3.88544130E-08
   3.23500000E-02  -3.95784241E-08
   3.24000008E-02  -4.02968823E-08
   3.24500017E-02  -4.10092760E-08
   3.24999988E-02  -4.17150723E-08
   3.25499997E-02  -4.24137419E-08
   3.26000005E-02  -4.31047411E-08
   3.26500013E-02  -4.37875229E-08
   3.26999985E-02  -4.44615402E-08
   3.27499993E-02  -4.51262281E-08
   3.28000002E-02  -4.57810181E-08
   3.28500010E-02  -4.64253382E-08
   3.29000019E-02  -4.70586095E-08
   3.29499990E-02  -4.76802455E-08
   3.29999998E-02  -4.82896567E-08
   3.30500007E-02  -4.88862533E-08
   3.31000015E-02  -4.94694277E-08
   3.31499986E-02  -5.00385724E-08
   3.31999995E-02  -5.05930835E-08
   3.32500003E-02  -5.11323428E-08
   3.33000012E-02  -5.16557357E-08
   3.33499983E-02  -5.21626333E-08
   3.33999991E-02  -5.26524104E-08
   3.34500000E-02  -5.31244382E-08
   3.35000008E-02  -5.35780877E-08
   3.35500017E-02  -5.40127161E-08
   3.35999988E-02  -5.44276944E-08
   3.36499996E-02  -5.48223795E-08
   3.37000005E-02  -5.51961286E-08
   3.37500013E-02  -5.55483020E-08
   3.37999985E-02  -5.58782531E-08
   3.38499993E-02  -5.61853390E-08
   3.39000002E-02  -5.64689131E-08
   3.39500010E-02  -5.67283251E-08
   3.40000018E-02  -5.69629393E-08
   3.40499990E-02  -5.71721053E-08
   3.40999998E-02  -5.73551802E-08
   3.41500007E-02  -5.75115244E-08
   3.42000015E-02  -5.76404915E-08
   3.42499986E-02  -5.77414490E-08
   3.42999995E-02  -5.78137609E-08
   3.43500003E-02  -5.78567949E-08
   3.44000012E-02  -5.78699257E-08
   3.44499983E-02  -5.78525210E-08
   3.44999991E-02  -5.78039590E-08
   3.45500000E-02  -5.77236285E-08
   3.46000008E-02  -5.76109187E-08
   3.46500017E-02  -5.74652184E-08
   3.46999988E-02  -5.72859342E-08
   3.47499996E-02  -5.70724694E-08
   3.48000005E-02  -5.68242342E-08
   3.48500013E-02  -5.65406566E-08
   3.48999985E-02  -5.62211611E-08
   3.49499993E-02  -5.58651863E-08
   3.50000001E-02  -5.54721780E-08
   3.50500010E-02  -5.50415855E-08
   3.51000018E-02  -5.45728760E-08
   3.51499990E-02  -5.40655236E-08
   3.51999998E-02  -5.35190097E-08
   3.52500007E-02  -5.29328403E-08
   3.53000015E-02  -5.23065182E-08
   3.53499986E-02  -5.16395602E-08
   3.53999995E-02  -5.09315043E-08
   3.54500003E-02  -5.01818960E-08
   3.55000012E-02  -4.93902910E-08
   3.55499983E-02  -4.85562595E-08
   3.55999991E-02  -4.76794000E-08
   3.56500000E-02  -4.67593040E-08
   3.57000008E-02  -4.57955984E-08
   3.57500017E-02  -4.47879138E-08
   3.57999988E-02  -4.37359020E-08
   3.58499996E-02  -4.26392326E-08
   3.59000005E-02  -4.14975858E-08
   3.59500013E-02  -4.03106668E-08
   3.59999985E-02  -3.90782020E-08
   3.60499993E-02  -3.77999356E-08
   3.61000001E-02  -3.64756296E-08
   3.61500010E-02  -3.51050566E-08
   3.62000018E-02  -3.36880248E-08
   3.62499990E-02  -3.22243565E-08
   3.62999998E-02  -3.07138954E-08
   3.63500006E-02  -2.91565136E-08
   3.64000015E-02  -2.75520939E-08
   3.64499986E-02  -2.59005493E-08
   3.64999995E-02  -2.42018210E-08
   3.65500003E-02  -2.24558665E-08
   3.66000012E-02  -2.06626645E-08
   3.66499983E-02  -1.88222291E-08
   3.66999991E-02  -1.69345995E-08
   3.67500000E-02  -1.49998307E-08
   3.68000008E-02  -1.30180045E-08
   3.68500017E-02  -1.09892424E-08
   3.68999988E-02  -8.91369289E-09
   3.69499996E-02  -6.79151224E-09
   3.70000005E-02  -4.62290073E-09
   3.70500013E-02  -2.40808551E-09
   3.70999984E-02  -1.47319212E-10
   3.71499993E-02   2.15911333E-09
   3.72000001E-02   4.51089743E-09
   3.72500010E-02   6.90769486E-09
   3.73000018E-02   9.34913924E-09
   3.73499990E-02   1.18348202E-08
   3.73999998E-02   1.43643089E-08
   3.74500006E-02   1.69371273E-08
   3.75000015E-02   1.95527825E-08
   3.75499986E-02   2.22107417E-08
   3.75999995E-02   2.49104399E-08
   3.76500003E-02   2.76512910E-08
   3.77000012E-02   3.04326591E-08
   3.77499983E-02   3.32538868E-08
   3.77999991E-02   3.61142867E-08
   3.78500000E-02   3.90131270E-08
   3.79000008E-02   4.19496473E-08
   3.79500017E-02   4.49230413E-08
   3.79999988E-02   4.79324811E-08
   3.80499996E-02   5.09771034E-08
   3.81000005E-02   5.40560166E-08
   3.81500013E-02   5.71682683E-08
   3.81999984E-02   6.03128996E-08
   3.82499993E-02   6.34889048E-08
   3.83000001E-02   6.66952502E-08
   3.83500010E-02   6.99308629E-08
   3.84000018E-02   7.31946201E-08
   3.84499989E-02   7.64853851E-08
   3.84999998E-02   7.98019713E-08
   3.85500006E-02   8.31431635E-08
   3.86000015E-02   8.65077112E-08
   3.86499986E-02   8.98943213E-08
   3.86999995E-02   9.33016864E-08
   3.87500003E-02   9.67284208E-08
   3.88000011E-02   1.00173153E-07
   3.88499983E-02   1.03634456E-07
   3.88999991E-02   1.07110878E-07
   3.89500000E-02   1.10600901E-07
   3.90000008E-02   1.14102995E-07
   3.90500017E-02   1.17615585E-07
   3.90999988E-02   1.21137077E-07
   3.91499996E-02   1.24665846E-07
   3.92000005E-02   1.28200199E-07
   3.92500013E-02   1.31738474E-07
   3.92999984E-02   1.35278896E-07
   3.93499993E-02   1.38819729E-07
   3.94000001E-02   1.42359141E-07
   3.94500010E-02   1.45895314E-07
   3.95000018E-02   1.49426384E-07
   3.95499989E-02   1.52950435E-07
   3.95999998E-02   1.56465575E-07
   3.96500006E-02   1.59969815E-07
   3.97000015E-02   1.63461195E-07
   3.97499986E-02   1.66937667E-07
   3.97999994E-02   1.70397215E-07
   3.98500003E-02   1.73837748E-07
   3.99000011E-02   1.77257164E-07
   3.99499983E-02   1.80653345E-07
   3.99999991E-02   1.84024131E-07
   4.00500000E-02   1.87367348E-07
   4.01000008E-02   1.90680780E-07
   4.01500016E-02   1.93962194E-07
   4.01999988E-02   1.97209346E-07
   4.02499996E-02   2.00419947E-07
   4.03000005E-02   2.03591696E-07
   4.03500013E-02   2.06722291E-07
   4.03999984E-02   2.09809357E-07
   4.04499993E-02   2.12850566E-07
   4.05000001E-02   2.15843528E-07
   4.05500010E-02   2.18785843E-07
   4.06000018E-02   2.21675108E-07
   4.06499989E-02   2.24508867E-07
   4.06999998E-02   2.27284659E-07
   4.07500006E-02   2.30000069E-07
   4.08000015E-02   2.32652610E-07
   4.08499986E-02   2.35239781E-07
   4.08999994E-02   2.37759110E-07
   4.09500003E-02   2.40208067E-07
   4.10000011E-02   2.42584150E-07
   4.10499983E-02   2.44884831E-07
   4.10999991E-02   2.47107579E-07
   4.11499999E-02   2.49249865E-07
   4.12000008E-02   2.51309160E-07
   4.12500016E-02   2.53282906E-07
   4.12999988E-02   2.55168544E-07
   4.13499996E-02   2.56963602E-07
   4.14000005E-02   2.58665494E-07
   4.14500013E-02   2.60271662E-07
   4.14999984E-02   2.61779604E-07
   4.15499993E-02   2.63186791E-07
   4.16000001E-02   2.64490666E-07
   4.16500010E-02   2.65688726E-07
   4.17000018E-02   2.66778500E-07
   4.17499989E-02   2.67757486E-07
   4.17999998E-02   2.68623154E-07
   4.18500006E-02   2.69373089E-07
   4.19000015E-02   2.70004819E-07
   4.19499986E-02   2.70515869E-07
   4.19999994E-02   2.70903882E-07
   4.20500003E-02   2.71166442E-07
   4.21000011E-02   2.71301133E-07
   4.21499982E-02   2.71305652E-07
   4.21999991E-02   2.71177640E-07
   4.22499999E-02   2.70914768E-07
   4.23000008E-02   2.70514818E-07
   4.23500016E-02   2.69975487E-07
   4.23999988E-02   2.69294617E-07
   4.24499996E-02   2.68469961E-07
   4.25000004E-02   2.67499416E-07
   4.25500013E-02   2.66380880E-07
   4.25999984E-02   2.65112220E-07
   4.26499993E-02   2.63691447E-07
   4.27000001E-02   2.62116544E-07
   4.27500010E-02   2.60385576E-07
   4.28000018E-02   2.58496641E-07