   0.00000000       0.00000000    
   4.99999987E-05   0.00000000    
   9.99999975E-05   0.00000000    
   1.50000007E-04   0.00000000    
   1.99999995E-04  -9.26634723E-26
   2.50000012E-04  -9.71498179E-25
   3.00000014E-04  -5.49731487E-24
   3.49999988E-04  -2.23761863E-23
   3.99999990E-04  -7.35036358E-23
   4.49999992E-04  -2.07120151E-22
   5.00000024E-04  -5.19606497E-22
   5.49999997E-04  -1.18952581E-21
   6.00000028E-04  -2.52838700E-21
   6.50000002E-04  -5.05354444E-21
   6.99999975E-04  -9.58974799E-21
   7.50000007E-04  -1.74068802E-20
   7.99999980E-04  -3.04027358E-20
   8.50000011E-04  -5.13411522E-20
   8.99999985E-04  -8.41566964E-20
   9.50000016E-04  -1.34339431E-19
   1.00000005E-03  -2.09413723E-19
   1.04999996E-03  -3.19528187E-19
   1.09999999E-03  -4.78174552E-19
   1.15000003E-03  -7.03053373E-19
   1.20000006E-03  -1.01711162E-18
   1.24999997E-03  -1.44977247E-18
   1.30000000E-03  -2.03838686E-18
   1.35000004E-03  -2.82992984E-18
   1.39999995E-03  -3.88297811E-18
   1.44999998E-03  -5.26999250E-18
   1.50000001E-03  -7.07994805E-18
   1.55000004E-03  -9.42133985E-18
   1.59999996E-03  -1.24256193E-17
   1.64999999E-03  -1.62510716E-17
   1.70000002E-03  -2.10872211E-17
   1.75000005E-03  -2.71597938E-17
   1.79999997E-03  -3.47362157E-17
   1.85000000E-03  -4.41318724E-17
   1.90000003E-03  -5.57170001E-17
   1.94999995E-03  -6.99243565E-17
   2.00000009E-03  -8.72577145E-17
   2.05000001E-03  -1.08301203E-16
   2.09999993E-03  -1.33729654E-16
   2.15000007E-03  -1.64320104E-16
   2.19999999E-03  -2.00963967E-16
   2.24999990E-03  -2.44680793E-16
   2.30000005E-03  -2.96633003E-16
   2.34999997E-03  -3.58142047E-16
   2.40000011E-03  -4.30706063E-16
   2.45000003E-03  -5.16018718E-16
   2.49999994E-03  -6.15989729E-16
   2.55000009E-03  -7.32767038E-16
   2.60000001E-03  -8.68760825E-16
   2.64999992E-03  -1.02666937E-15
   2.70000007E-03  -1.20950640E-15
   2.74999999E-03  -1.42063085E-15
   2.79999990E-03  -1.66377864E-15
   2.85000005E-03  -1.94309655E-15
   2.89999996E-03  -2.26317823E-15
   2.95000011E-03  -2.62910260E-15
   3.00000003E-03  -3.04647660E-15
   3.04999994E-03  -3.52147743E-15
   3.10000009E-03  -4.06089660E-15
   3.15000000E-03  -4.67219393E-15
   3.19999992E-03  -5.36354688E-15
   3.25000007E-03  -6.14390393E-15
   3.29999998E-03  -7.02304620E-15
   3.34999990E-03  -8.01164673E-15
   3.40000005E-03  -9.12133528E-15
   3.44999996E-03  -1.03647636E-14
   3.50000011E-03  -1.17556814E-14
   3.55000002E-03  -1.33090086E-14
   3.59999994E-03  -1.50409114E-14
   3.65000009E-03  -1.69688939E-14
   3.70000000E-03  -1.91118704E-14
   3.74999992E-03  -2.14902711E-14
   3.80000006E-03  -2.41261157E-14
   3.84999998E-03  -2.70431294E-14
   3.89999989E-03  -3.02668352E-14
   3.94999981E-03  -3.38246683E-14
   4.00000019E-03  -3.77460785E-14
   4.05000011E-03  -4.20626465E-14
   4.10000002E-03  -4.68082028E-14
   4.14999994E-03  -5.20189496E-14
   4.19999985E-03  -5.77335895E-14
   4.25000023E-03  -6.39934679E-14
   4.30000015E-03  -7.08426847E-14
   4.35000006E-03  -7.83282537E-14
   4.39999998E-03  -8.65002582E-14
   4.44999989E-03  -9.54119799E-14
   4.49999981E-03  -1.05120021E-13
   4.55000019E-03  -1.15684534E-13
   4.60000010E-03  -1.27169339E-13
   4.65000002E-03  -1.39642123E-13
   4.69999993E-03  -1.53174551E-13
   4.74999985E-03  -1.67842452E-13
   4.80000023E-03  -1.83726095E-13
   4.85000014E-03  -2.00910266E-13
   4.90000006E-03  -2.19484465E-13
   4.94999997E-03  -2.39543113E-13
   4.99999989E-03  -2.61185740E-13
   5.04999980E-03  -2.84517201E-13
   5.10000018E-03  -3.09647842E-13
   5.15000010E-03  -3.36693780E-13
   5.20000001E-03  -3.65776989E-13
   5.24999993E-03  -3.97025593E-13
   5.29999984E-03  -4.30573979E-13
   5.35000023E-03  -4.66563149E-13
   5.40000014E-03  -5.05140688E-13
   5.45000006E-03  -5.46461314E-13
   5.49999997E-03  -5.90686842E-13
   5.54999989E-03  -6.37986463E-13
   5.59999980E-03  -6.88537010E-13
   5.65000018E-03  -7.42523122E-13
   5.70000010E-03  -8.00137300E-13
   5.75000001E-03  -8.61580338E-13
   5.79999993E-03  -9.27061596E-13
   5.84999984E-03  -9.96798998E-13
   5.90000022E-03  -1.07101936E-12
   5.95000014E-03  -1.14995838E-12
   6.00000005E-03  -1.23386089E-12
   6.04999997E-03  -1.32298155E-12
   6.09999988E-03  -1.41758437E-12
   6.14999980E-03  -1.51794300E-12
   6.20000018E-03  -1.62434150E-12
   6.25000009E-03  -1.73707370E-12
   6.30000001E-03  -1.85644360E-12
   6.34999992E-03  -1.98276595E-12
   6.39999984E-03  -2.11636568E-12
   6.45000022E-03  -2.25757889E-12
   6.50000013E-03  -2.40675166E-12
   6.55000005E-03  -2.56424222E-12
   6.59999996E-03  -2.73041919E-12
   6.64999988E-03  -2.90566182E-12
   6.69999979E-03  -3.09036130E-12
   6.75000018E-03  -3.28491921E-12
   6.80000009E-03  -3.48974929E-12
   6.85000001E-03  -3.70527567E-12
   6.89999992E-03  -3.93193421E-12
   6.94999984E-03  -4.17017159E-12
   7.00000022E-03  -4.42044535E-12
   7.05000013E-03  -4.68322603E-12
   7.10000005E-03  -4.95899285E-12
   7.14999996E-03  -5.24823674E-12
   7.19999988E-03  -5.55146033E-12
   7.24999979E-03  -5.86917624E-12
   7.30000017E-03  -6.20190748E-12
   7.35000009E-03  -6.55018704E-12
   7.40000000E-03  -6.91455790E-12
   7.44999992E-03  -7.29557300E-12
   7.49999983E-03  -7.69379525E-12
   7.55000021E-03  -8.10979495E-12
   7.60000013E-03  -8.54415323E-12
   7.65000004E-03  -8.99745729E-12
   7.69999996E-03  -9.47030388E-12
   7.74999987E-03  -9.96329755E-12
   7.79999979E-03  -1.04770472E-11
   7.84999970E-03  -1.10121703E-11
   7.89999962E-03  -1.15692898E-11
   7.95000046E-03  -1.21490335E-11
   8.00000038E-03  -1.27520329E-11
   8.05000030E-03  -1.33789221E-11
   8.10000021E-03  -1.40303437E-11
   8.15000013E-03  -1.47069371E-11
   8.20000004E-03  -1.54093422E-11
   8.24999996E-03  -1.61382054E-11
   8.29999987E-03  -1.68941666E-11
   8.34999979E-03  -1.76778679E-11
   8.39999970E-03  -1.84899457E-11
   8.44999962E-03  -1.93310350E-11
   8.50000046E-03  -2.02017691E-11
   8.55000038E-03  -2.11027671E-11
   8.60000029E-03  -2.20346484E-11
   8.65000021E-03  -2.29980219E-11
   8.70000012E-03  -2.39934825E-11
   8.75000004E-03  -2.50216219E-11
   8.79999995E-03  -2.60830108E-11
   8.84999987E-03  -2.71782128E-11
   8.89999978E-03  -2.83077728E-11
   8.94999970E-03  -2.94722198E-11
   8.99999961E-03  -3.06720552E-11
   9.05000046E-03  -3.19077750E-11
   9.10000037E-03  -3.31798408E-11
   9.15000029E-03  -3.44886932E-11
   9.20000020E-03  -3.58347484E-11
   9.25000012E-03  -3.72183985E-11
   9.30000003E-03  -3.86399940E-11
   9.34999995E-03  -4.00998609E-11
   9.39999986E-03  -4.15982873E-11
   9.44999978E-03  -4.31355368E-11
   9.49999969E-03  -4.47118141E-11
   9.54999961E-03  -4.63272962E-11
   9.60000046E-03  -4.79821183E-11
   9.65000037E-03  -4.96763672E-11
   9.70000029E-03  -5.14100811E-11
   9.75000020E-03  -5.31832460E-11
   9.80000012E-03  -5.49958031E-11
   9.85000003E-03  -5.68476238E-11
   9.89999995E-03  -5.87385279E-11
   9.94999986E-03  -6.06682898E-11
   9.99999978E-03  -6.26365973E-11
   1.00499997E-02  -6.46430895E-11
   1.00999996E-02  -6.66873362E-11
   1.01500005E-02  -6.87688378E-11
   1.02000004E-02  -7.08869977E-11
   1.02500003E-02  -7.30411703E-11
   1.03000002E-02  -7.52306203E-11
   1.03500001E-02  -7.74545150E-11
   1.04000000E-02  -7.97119662E-11
   1.04499999E-02  -8.20019747E-11
   1.04999999E-02  -8.43234649E-11
   1.05499998E-02  -8.66752572E-11
   1.05999997E-02  -8.90560889E-11
   1.06499996E-02  -9.14645859E-11
   1.07000005E-02  -9.38992703E-11
   1.07500004E-02  -9.63585739E-11
   1.08000003E-02  -9.88408105E-11
   1.08500002E-02  -1.01344176E-10
   1.09000001E-02  -1.03866769E-10
   1.09500000E-02  -1.06406557E-10
   1.09999999E-02  -1.08961409E-10
   1.10499999E-02  -1.11529057E-10
   1.10999998E-02  -1.14107120E-10
   1.11499997E-02  -1.16693044E-10
   1.11999996E-02  -1.19284221E-10
   1.12500004E-02  -1.21877869E-10
   1.13000004E-02  -1.24471072E-10
   1.13500003E-02  -1.27060792E-10
   1.14000002E-02  -1.29643851E-10
   1.14500001E-02  -1.32216918E-10
   1.15000000E-02  -1.34776523E-10
   1.15499999E-02  -1.37319045E-10
   1.15999999E-02  -1.39840764E-10
   1.16499998E-02  -1.42337753E-10
   1.16999997E-02  -1.44805959E-10
   1.17499996E-02  -1.47241191E-10
   1.18000004E-02  -1.49639065E-10
   1.18500004E-02  -1.51995083E-10
   1.19000003E-02  -1.54304597E-10
   1.19500002E-02  -1.56562777E-10
   1.20000001E-02  -1.58764626E-10
   1.20500000E-02  -1.60905053E-10
   1.20999999E-02  -1.62978755E-10
   1.21499998E-02  -1.64980307E-10
   1.21999998E-02  -1.66904088E-10
   1.22499997E-02  -1.68744338E-10
   1.22999996E-02  -1.70495160E-10
   1.23500004E-02  -1.72150502E-10
   1.24000004E-02  -1.73704079E-10
   1.24500003E-02  -1.75149575E-10
   1.25000002E-02  -1.76480455E-10
   1.25500001E-02  -1.77690029E-10
   1.26000000E-02  -1.78771484E-10
   1.26499999E-02  -1.79717796E-10
   1.26999998E-02  -1.80521903E-10
   1.27499998E-02  -1.81176560E-10
   1.27999997E-02  -1.81674384E-10
   1.28499996E-02  -1.82007812E-10
   1.29000004E-02  -1.82169196E-10
   1.29500004E-02  -1.82150794E-10
   1.30000003E-02  -1.81944682E-10
   1.30500002E-02  -1.81542836E-10
   1.31000001E-02  -1.80937113E-10
   1.31500000E-02  -1.80119281E-10
   1.31999999E-02  -1.79081014E-10
   1.32499998E-02  -1.77813916E-10
   1.32999998E-02  -1.76309425E-10
   1.33499997E-02  -1.74558909E-10
   1.33999996E-02  -1.72553721E-10
   1.34500004E-02  -1.70285092E-10
   1.35000004E-02  -1.67744235E-10
   1.35500003E-02  -1.64922298E-10
   1.36000002E-02  -1.61810371E-10
   1.36500001E-02  -1.58399530E-10
   1.37000000E-02  -1.54680838E-10
   1.37499999E-02  -1.50645302E-10
   1.37999998E-02  -1.46283999E-10
   1.38499998E-02  -1.41587977E-10
   1.38999997E-02  -1.36548300E-10
   1.39499996E-02  -1.31156030E-10
   1.40000004E-02  -1.25402286E-10
   1.40500003E-02  -1.19278254E-10
   1.41000003E-02  -1.12775213E-10
   1.41500002E-02  -1.05884516E-10
   1.42000001E-02  -9.85976509E-11
   1.42500000E-02  -9.09061021E-11
   1.42999999E-02  -8.28014948E-11
   1.43499998E-02  -7.42757314E-11
   1.43999998E-02  -6.53208043E-11
   1.44499997E-02  -5.59288067E-11
   1.44999996E-02  -4.60920954E-11
   1.45500004E-02  -3.58031903E-11
   1.46000003E-02  -2.50549113E-11
   1.46500003E-02  -1.38403282E-11
   1.47000002E-02  -2.15261337E-12
   1.47500001E-02   1.00147547E-11
   1.48000000E-02   2.26678468E-11
   1.48499999E-02   3.58124086E-11
   1.48999998E-02   4.94540311E-11
   1.49499997E-02   6.35978908E-11
   1.49999997E-02   7.82487269E-11
   1.50499996E-02   9.34109595E-11
   1.51000004E-02   1.09088412E-10
   1.51500003E-02   1.25284644E-10
   1.52000003E-02   1.42002757E-10
   1.52500002E-02   1.59245242E-10
   1.53000001E-02   1.77014181E-10
   1.53500000E-02   1.95311115E-10
   1.53999999E-02   2.14137014E-10
   1.54499998E-02   2.33492281E-10
   1.54999997E-02   2.53376653E-10
   1.55499997E-02   2.73789352E-10
   1.55999996E-02   2.94728936E-10
   1.56500004E-02   3.16193266E-10
   1.56999994E-02   3.38179457E-10
   1.57500003E-02   3.60683899E-10
   1.57999992E-02   3.83702348E-10
   1.58500001E-02   4.07229722E-10
   1.59000009E-02   4.31260111E-10
   1.59499999E-02   4.55786853E-10
   1.60000008E-02   4.80802342E-10
   1.60499997E-02   5.06298281E-10
   1.61000006E-02   5.32265232E-10
   1.61499996E-02   5.58693092E-10
   1.62000004E-02   5.85570703E-10
   1.62499994E-02   6.12886020E-10
   1.63000003E-02   6.40625775E-10
   1.63499992E-02   6.68775813E-10
   1.64000001E-02   6.97321090E-10
   1.64500009E-02   7.26245286E-10
   1.64999999E-02   7.55531138E-10
   1.65500008E-02   7.85160215E-10
   1.65999997E-02   8.15112977E-10
   1.66500006E-02   8.45368719E-10
   1.66999996E-02   8.75905515E-10
   1.67500004E-02   9.06700270E-10
   1.67999994E-02   9.37728784E-10
   1.68500002E-02   9.68965241E-10
   1.68999992E-02   1.00038322E-09
   1.69500001E-02   1.03195441E-09
   1.70000009E-02   1.06364939E-09
   1.70499999E-02   1.09543774E-09
   1.71000008E-02   1.12728737E-09
   1.71499997E-02   1.15916499E-09
   1.72000006E-02   1.19103571E-09
   1.72499996E-02   1.22286337E-09
   1.73000004E-02   1.25461075E-09
   1.73499994E-02   1.28623878E-09
   1.74000002E-02   1.31770739E-09
   1.74499992E-02   1.34897471E-09
   1.75000001E-02   1.37999756E-09
   1.75500009E-02   1.41073142E-09
   1.75999999E-02   1.44112999E-09
   1.76500008E-02   1.47114620E-09
   1.76999997E-02   1.50073087E-09
   1.77500006E-02   1.52983370E-09
   1.77999996E-02   1.55840274E-09
   1.78500004E-02   1.58638458E-09
   1.78999994E-02   1.61372471E-09
   1.79500002E-02   1.64036662E-09
   1.79999992E-02   1.66625247E-09
   1.80500001E-02   1.69132364E-09
   1.81000009E-02   1.71551884E-09
   1.81499999E-02   1.73877635E-09
   1.82000007E-02   1.76103276E-09
   1.82499997E-02   1.78222326E-09
   1.83000006E-02   1.80228166E-09
   1.83499996E-02   1.82114013E-09
   1.84000004E-02   1.83872939E-09
   1.84499994E-02   1.85497950E-09
   1.85000002E-02   1.86981897E-09
   1.85499992E-02   1.88317451E-09
   1.86000001E-02   1.89497174E-09
   1.86500009E-02   1.90513538E-09
   1.86999999E-02   1.91358862E-09
   1.87500007E-02   1.92025418E-09
   1.87999997E-02   1.92505278E-09
   1.88500006E-02   1.92790472E-09
   1.88999996E-02   1.92872829E-09
   1.89500004E-02   1.92744198E-09
   1.89999994E-02   1.92396232E-09
   1.90500002E-02   1.91820515E-09
   1.90999992E-02   1.91008520E-09
   1.91500001E-02   1.89951788E-09
   1.92000009E-02   1.88641636E-09
   1.92499999E-02   1.87069338E-09
   1.93000007E-02   1.85226012E-09
   1.93499997E-02   1.83102877E-09
   1.94000006E-02   1.80691073E-09
   1.94499996E-02   1.77981707E-09
   1.95000004E-02   1.74965731E-09
   1.95499994E-02   1.71634118E-09
   1.96000002E-02   1.67977832E-09
   1.96499992E-02   1.63987823E-09
   1.97000001E-02   1.59655078E-09
   1.97500009E-02   1.54970559E-09
   1.97999999E-02   1.49925228E-09
   1.98500007E-02   1.44510048E-09
   1.98999997E-02   1.38715983E-09
   1.99500006E-02   1.32534050E-09
   1.99999996E-02   1.25955357E-09
   2.00500004E-02   1.18971055E-09
   2.00999994E-02   1.11572362E-09
   2.01500002E-02   1.03750530E-09
   2.01999992E-02   9.54969881E-10
   2.02500001E-02   8.68031980E-10
   2.03000009E-02   7.76607834E-10
   2.03499999E-02   6.80614065E-10
   2.04000007E-02   5.79969239E-10
   2.04499997E-02   4.74593975E-10
   2.05000006E-02   3.64408920E-10
   2.05499995E-02   2.49337356E-10
   2.06000004E-02   1.29304609E-10
   2.06499994E-02   4.23754304E-12
   2.07000002E-02  -1.25934624E-10
   2.07499992E-02  -2.61280664E-10
   2.08000001E-02  -4.01866485E-10
   2.08500009E-02  -5.47755841E-10
   2.08999999E-02  -6.99009850E-10
   2.09500007E-02  -8.55686633E-10
   2.09999997E-02  -1.01784225E-09
   2.10500006E-02  -1.18552868E-09
   2.10999995E-02  -1.35879419E-09
   2.11500004E-02  -1.53768487E-09
   2.11999994E-02  -1.72224268E-09
   2.12500002E-02  -1.91250549E-09
   2.12999992E-02  -2.10850848E-09
   2.13500001E-02  -2.31028174E-09
   2.14000009E-02  -2.51785215E-09
   2.14499999E-02  -2.73124146E-09
   2.15000007E-02  -2.95046720E-09
   2.15499997E-02  -3.17554161E-09
   2.16000006E-02  -3.40647355E-09
   2.16499995E-02  -3.64326569E-09
   2.17000004E-02  -3.88591648E-09
   2.17499994E-02  -4.13441859E-09
   2.18000002E-02  -4.38875913E-09
   2.18499992E-02  -4.64891903E-09
   2.19000001E-02  -4.91487473E-09
   2.19500009E-02  -5.18659649E-09
   2.19999999E-02  -5.46404832E-09
   2.20500007E-02  -5.74718717E-09
   2.20999997E-02  -6.03596417E-09
   2.21500006E-02  -6.33032382E-09
   2.21999995E-02  -6.63020350E-09
   2.22500004E-02  -6.93553526E-09
   2.22999994E-02  -7.24624272E-09
   2.23500002E-02  -7.56224239E-09
   2.23999992E-02  -7.88344323E-09
   2.24500000E-02  -8.20974844E-09
   2.25000009E-02  -8.54104965E-09
   2.25499999E-02  -8.87723584E-09
   2.26000007E-02  -9.21818355E-09
   2.26499997E-02  -9.56376400E-09
   2.27000006E-02  -9.91383864E-09
   2.27499995E-02  -1.02682618E-08
   2.28000004E-02  -1.06268780E-08
   2.28499994E-02  -1.09895257E-08
   2.29000002E-02  -1.13560290E-08
   2.29499992E-02  -1.17262102E-08
   2.30000000E-02  -1.20998775E-08
   2.30500009E-02  -1.24768329E-08
   2.30999999E-02  -1.28568658E-08
   2.31500007E-02  -1.32397604E-08
   2.31999997E-02  -1.36252885E-08
   2.32500006E-02  -1.40132146E-08
   2.32999995E-02  -1.44032910E-08
   2.33500004E-02  -1.47952628E-08
   2.33999994E-02  -1.51888635E-08
   2.34500002E-02  -1.55838187E-08
   2.34999992E-02  -1.59798415E-08
   2.35500000E-02  -1.63766352E-08
   2.36000009E-02  -1.67738978E-08
   2.36499999E-02  -1.71713097E-08
   2.37000007E-02  -1.75685475E-08
   2.37499997E-02  -1.79652755E-08
   2.38000005E-02  -1.83611455E-08
   2.38499995E-02  -1.87558040E-08
   2.39000004E-02  -1.91488816E-08
   2.39499994E-02  -1.95400034E-08
   2.40000002E-02  -1.99287822E-08
   2.40499992E-02  -2.03148218E-08
   2.41000000E-02  -2.06977138E-08
   2.41500009E-02  -2.10770406E-08
   2.41999999E-02  -2.14523759E-08
   2.42500007E-02  -2.18232827E-08
   2.42999997E-02  -2.21893117E-08
   2.43500005E-02  -2.25500063E-08
   2.43999995E-02  -2.29049029E-08
   2.44500004E-02  -2.32535182E-08
   2.44999994E-02  -2.35953710E-08
   2.45500002E-02  -2.39299638E-08
   2.45999992E-02  -2.42567904E-08
   2.46500000E-02  -2.45753355E-08
   2.47000009E-02  -2.48850771E-08
   2.47499999E-02  -2.51854821E-08
   2.48000007E-02  -2.54760089E-08
   2.48499997E-02  -2.57561101E-08
   2.49000005E-02  -2.60252264E-08
   2.49499995E-02  -2.62827928E-08
   2.50000004E-02  -2.65282321E-08
   2.50499994E-02  -2.67609614E-08
   2.51000002E-02  -2.69803930E-08
   2.51499992E-02  -2.71859264E-08
   2.52000000E-02  -2.73769594E-08
   2.52500009E-02  -2.75528844E-08
   2.52999999E-02  -2.77130816E-08
   2.53500007E-02  -2.78569274E-08
   2.53999997E-02  -2.79837931E-08
   2.54500005E-02  -2.80930426E-08
   2.54999995E-02  -2.81840382E-08
   2.55500004E-02  -2.82561370E-08
   2.55999994E-02  -2.83086870E-08
   2.56500002E-02  -2.83410362E-08
   2.56999992E-02  -2.83525292E-08
   2.57500000E-02  -2.83425070E-08
   2.58000009E-02  -2.83103052E-08
   2.58499999E-02  -2.82552577E-08
   2.59000007E-02  -2.81766983E-08
   2.59499997E-02  -2.80739609E-08
   2.60000005E-02  -2.79463759E-08
   2.60499995E-02  -2.77932735E-08
   2.61000004E-02  -2.76139822E-08
   2.61499994E-02  -2.74078324E-08
   2.62000002E-02  -2.71741580E-08
   2.62499992E-02  -2.69122946E-08
   2.63000000E-02  -2.66215778E-08
   2.63500009E-02  -2.63013415E-08
   2.63999999E-02  -2.59509250E-08
   2.64500007E-02  -2.55696744E-08
   2.64999997E-02  -2.51569414E-08
   2.65500005E-02  -2.47120830E-08
   2.65999995E-02  -2.42344615E-08
   2.66500004E-02  -2.37234428E-08
   2.66999993E-02  -2.31784032E-08
   2.67500002E-02  -2.25987176E-08
   2.67999992E-02  -2.19837801E-08
   2.68500000E-02  -2.13329905E-08
   2.69000009E-02  -2.06457589E-08
   2.69499999E-02  -1.99215009E-08
   2.70000007E-02  -1.91596499E-08
   2.70499997E-02  -1.83596445E-08
   2.71000005E-02  -1.75209429E-08
   2.71499995E-02  -1.66430176E-08
   2.72000004E-02  -1.57253428E-08
   2.72499993E-02  -1.47674193E-08
   2.73000002E-02  -1.37687604E-08
   2.73499992E-02  -1.27288891E-08
   2.74000000E-02  -1.16473524E-08
   2.74500009E-02  -1.05237232E-08
   2.74999999E-02  -9.35758049E-09
   2.75500007E-02  -8.14852452E-09
   2.75999997E-02  -6.89617830E-09
   2.76500005E-02  -5.60018698E-09
   2.76999995E-02  -4.26021440E-09
   2.77500004E-02  -2.87595081E-09
   2.77999993E-02  -1.44711210E-09
   2.78500002E-02   2.65661625E-11
   2.78999992E-02   1.54532709E-09
   2.79500000E-02   3.10937986E-09
   2.80000009E-02   4.71890482E-09
   2.80499998E-02   6.37406483E-09
   2.81000007E-02   8.07499223E-09
   2.81499997E-02   9.82178339E-09
   2.82000005E-02   1.16145067E-08
   2.82499995E-02   1.34531968E-08
   2.83000004E-02   1.53378590E-08
   2.83499993E-02   1.72684693E-08
   2.84000002E-02   1.92449701E-08
   2.84499992E-02   2.12672635E-08
   2.85000000E-02   2.33352218E-08
   2.85500009E-02   2.54486796E-08
   2.85999998E-02   2.76074346E-08
   2.86500007E-02   2.98112468E-08
   2.86999997E-02   3.20598446E-08
   2.87500005E-02   3.43529081E-08
   2.87999995E-02   3.66900750E-08
   2.88500004E-02   3.90709474E-08
   2.88999993E-02   4.14950954E-08
   2.89500002E-02   4.39620358E-08
   2.89999992E-02   4.64712393E-08
   2.90500000E-02   4.90221517E-08
   2.91000009E-02   5.16141512E-08
   2.91499998E-02   5.42465806E-08
   2.92000007E-02   5.69187470E-08
   2.92499997E-02   5.96299046E-08
   2.93000005E-02   6.23792431E-08
   2.93499995E-02   6.51659420E-08
   2.94000003E-02   6.79890988E-08
   2.94499993E-02   7.08477899E-08
   2.95000002E-02   7.37410133E-08
   2.95499992E-02   7.66677459E-08
   2.96000000E-02   7.96269006E-08
   2.96500009E-02   8.26173405E-08
   2.96999998E-02   8.56378719E-08
   2.97500007E-02   8.86872584E-08
   2.97999997E-02   9.17642211E-08
   2.98500005E-02   9.48674099E-08
   2.98999995E-02   9.79954251E-08
   2.99500003E-02   1.01146831E-07
   2.99999993E-02   1.04320122E-07
   3.00500002E-02   1.07513749E-07
   3.00999992E-02   1.10726106E-07
   3.01500000E-02   1.13955529E-07
   3.02000009E-02   1.17200308E-07
   3.02499998E-02   1.20458679E-07
   3.03000007E-02   1.23728810E-07
   3.03499997E-02   1.27008832E-07
   3.04000005E-02   1.30296826E-07
   3.04499995E-02   1.33590802E-07
   3.05000003E-02   1.36888715E-07
   3.05499993E-02   1.40188476E-07
   3.06000002E-02   1.43487952E-07
   3.06499992E-02   1.46784927E-07
   3.07000000E-02   1.50077156E-07
   3.07500008E-02   1.53362350E-07
   3.07999998E-02   1.56638137E-07
   3.08500007E-02   1.59902115E-07
   3.08999997E-02   1.63151796E-07
   3.09500005E-02   1.66384709E-07
   3.09999995E-02   1.69598280E-07
   3.10500003E-02   1.72789868E-07
   3.10999993E-02   1.75956842E-07
   3.11500002E-02   1.79096489E-07
   3.11999992E-02   1.82206023E-07
   3.12500000E-02   1.85282644E-07
   3.13000008E-02   1.88323511E-07
   3.13500017E-02   1.91325682E-07
   3.13999988E-02   1.94286258E-07
   3.14499997E-02   1.97202226E-07
   3.15000005E-02   2.00070545E-07
   3.15500014E-02   2.02888145E-07
   3.15999985E-02   2.05651887E-07
   3.16499993E-02   2.08358642E-07
   3.17000002E-02   2.11005187E-07
   3.17500010E-02   2.13588280E-07
   3.18000019E-02   2.16104681E-07
   3.18499990E-02   2.18551037E-07
   3.18999998E-02   2.20924022E-07
   3.19500007E-02   2.23220283E-07
   3.20000015E-02   2.25436381E-07
   3.20499986E-02   2.27568890E-07
   3.20999995E-02   2.29614358E-07
   3.21500003E-02   2.31569288E-07
   3.22000012E-02   2.33430143E-07
   3.22499983E-02   2.35193411E-07
   3.22999991E-02   2.36855527E-07
   3.23500000E-02   2.38412909E-07
   3.24000008E-02   2.39861976E-07
   3.24500017E-02   2.41199103E-07
   3.24999988E-02   2.42420668E-07
   3.25499997E-02   2.43523033E-07
   3.26000005E-02   2.44502530E-07
   3.26500013E-02   2.45355551E-07
   3.26999985E-02   2.46078429E-07
   3.27499993E-02   2.46667554E-07
   3.28000002E-02   2.47119175E-07
   3.28500010E-02   2.47429710E-07
   3.29000019E-02   2.47595437E-07
   3.29499990E-02   2.47612746E-07
   3.29999998E-02   2.47478027E-07
   3.30500007E-02   2.47187614E-07
   3.31000015E-02   2.46737926E-07
   3.31499986E-02   2.46125353E-07
   3.31999995E-02   2.45346371E-07
   3.32500003E-02   2.44397370E-07
   3.33000012E-02   2.43274911E-07
   3.33499983E-02   2.41975442E-07
   3.33999991E-02   2.40495496E-07
   3.34500000E-02   2.38831603E-07
   3.35000008E-02   2.36980469E-07
   3.35500017E-02   2.34938710E-07
   3.35999988E-02   2.32702973E-07
   3.36499996E-02   2.30270018E-07
   3.37000005E-02   2.27636647E-07
   3.37500013E-02   2.24799734E-07
   3.37999985E-02   2.21756139E-07
   3.38499993E-02   2.18502777E-07
   3.39000002E-02   2.15036692E-07
   3.39500010E-02   2.11354958E-07
   3.40000018E-02   2.07454733E-07
   3.40499990E-02   2.03333215E-07
   3.40999998E-02   1.98987735E-07
   3.41500007E-02   1.94415648E-07
   3.42000015E-02   1.89614369E-07
   3.42499986E-02   1.84581467E-07
   3.42999995E-02   1.79314583E-07
   3.43500003E-02   1.73811372E-07
   3.44000012E-02   1.68069690E-07
   3.44499983E-02   1.62087474E-07
   3.44999991E-02   1.55862679E-07
   3.45500000E-02   1.49393429E-07
   3.46000008E-02   1.42677933E-07
   3.46500017E-02   1.35714586E-07
   3.46999988E-02   1.28501824E-07
   3.47499996E-02   1.21038155E-07
   3.48000005E-02   1.13322301E-07
   3.48500013E-02   1.05353102E-07
   3.48999985E-02   9.71294938E-08
   3.49499993E-02   8.86505234E-08
   3.50000001E-02   7.99153668E-08
   3.50500010E-02   7.09234413E-08
   3.51000018E-02   6.16741929E-08
   3.51499990E-02   5.21672874E-08
   3.51999998E-02   4.24024691E-08
   3.52500007E-02   3.23796563E-08
   3.53000015E-02   2.20989911E-08
   3.53499986E-02   1.15606991E-08
   3.53999995E-02   7.65159824E-10
   3.54500003E-02  -1.02870334E-08
   3.55000012E-02  -2.15951612E-08
   3.55499983E-02  -3.31583543E-08
   3.55999991E-02  -4.49755113E-08
   3.56500000E-02  -5.70453409E-08
   3.57000008E-02  -6.93664504E-08
   3.57500017E-02  -8.19372019E-08
   3.57999988E-02  -9.47558192E-08
   3.58499996E-02  -1.07820362E-07
   3.59000005E-02  -1.21128636E-07
   3.59500013E-02  -1.34678231E-07
   3.59999985E-02  -1.48466611E-07
   3.60499993E-02  -1.62491048E-07
   3.61000001E-02  -1.76748628E-07
   3.61500010E-02  -1.91236154E-07
   3.62000018E-02  -2.05950286E-07
   3.62499990E-02  -2.20887486E-07
   3.62999998E-02  -2.36043945E-07
   3.63500006E-02  -2.51415742E-07
   3.64000015E-02  -2.66998654E-07
   3.64499986E-02  -2.82788307E-07
   3.64999995E-02  -2.98780094E-07
   3.65500003E-02  -3.14969213E-07
   3.66000012E-02  -3.31350606E-07
   3.66499983E-02  -3.47918984E-07
   3.66999991E-02  -3.64668949E-07
   3.67500000E-02  -3.81594731E-07
   3.68000008E-02  -3.98690418E-07
   3.68500017E-02  -4.15949870E-07
   3.68999988E-02  -4.33366779E-07
   3.69499996E-02  -4.50934522E-07
   3.70000005E-02  -4.68646306E-07
   3.70500013E-02  -4.86495082E-07
   3.70999984E-02  -5.04473633E-07
   3.71499993E-02  -5.22574339E-07
   3.72000001E-02  -5.40789642E-07
   3.72500010E-02  -5.59111584E-07
   3.73000018E-02  -5.77531978E-07
   3.73499990E-02  -5.96042412E-07
   3.73999998E-02  -6.14634359E-07
   3.74500006E-02  -6.33298953E-07
   3.75000015E-02  -6.52027154E-07
   3.75499986E-02  -6.70809698E-07
   3.75999995E-02  -6.89637147E-07
   3.76500003E-02  -7.08499726E-07
   3.77000012E-02  -7.27387487E-07
   3.77499983E-02  -7.46290425E-07
   3.77999991E-02  -7.65198138E-07
   3.78500000E-02  -7.84100052E-07
   3.79000008E-02  -8.02985369E-07
   3.79500017E-02  -8.21843173E-07
   3.79999988E-02  -8.40662324E-07
   3.80499996E-02  -8.59431339E-07
   3.81000005E-02  -8.78138735E-07
   3.81500013E-02  -8.96772633E-07
   3.81999984E-02  -9.15321209E-07
   3.82499993E-02  -9.33772185E-07
   3.83000001E-02  -9.52113339E-07
   3.83500010E-02  -9.70332053E-07
   3.84000018E-02  -9.88415650E-07
   3.84499989E-02  -1.00635123E-06
   3.84999998E-02  -1.02412582E-06
   3.85500006E-02  -1.04172625E-06
   3.86000015E-02  -1.05913887E-06
   3.86499986E-02  -1.07635037E-06
   3.86999995E-02  -1.09334701E-06
   3.87500003E-02  -1.11011502E-06
   3.88000011E-02  -1.12664043E-06
   3.88499983E-02  -1.14290890E-06
   3.88999991E-02  -1.15890646E-06
   3.89500000E-02  -1.17461855E-06
   3.90000008E-02  -1.19003084E-06
   3.90500017E-02  -1.20512868E-06
   3.90999988E-02  -1.21989729E-06
   3.91499996E-02  -1.23432187E-06
   3.92000005E-02  -1.24838755E-06
   3.92500013E-02  -1.26207931E-06
   3.92999984E-02  -1.27538215E-06
   3.93499993E-02  -1.28828083E-06
   3.94000001E-02  -1.30076023E-06
   3.94500010E-02  -1.31280501E-06
   3.95000018E-02  -1.32439982E-06
   3.95499989E-02  -1.33552919E-06
   3.95999998E-02  -1.34617778E-06
   3.96500006E-02  -1.35633013E-06
   3.97000015E-02  -1.36597089E-06
   3.97499986E-02  -1.37508459E-06
   3.97999994E-02  -1.38365556E-06
   3.98500003E-02  -1.39166843E-06
   3.99000011E-02  -1.39910787E-06
   3.99499983E-02  -1.40595830E-06
   3.99999991E-02  -1.41220437E-06
   4.00500000E-02  -1.41783073E-06
   4.01000008E-02  -1.42282192E-06
   4.01500016E-02  -1.42716272E-06
   4.01999988E-02  -1.43083798E-06
   4.02499996E-02  -1.43383284E-06
   4.03000005E-02  -1.43613192E-06
   4.03500013E-02  -1.43772047E-06
   4.03999984E-02  -1.43858369E-06
   4.04499993E-02  -1.43870670E-06
   4.05000001E-02  -1.43807506E-06
   4.05500010E-02  -1.43667444E-06
   4.06000018E-02  -1.43449040E-06
   4.06499989E-02  -1.43150896E-06
   4.06999998E-02  -1.42771626E-06
   4.07500006E-02  -1.42309818E-06
   4.08000015E-02  -1.41764133E-06
   4.08499986E-02  -1.41133251E-06
   4.08999994E-02  -1.40415818E-06
   4.09500003E-02  -1.39610552E-06
   4.10000011E-02  -1.38716200E-06
   4.10499983E-02  -1.37731502E-06
   4.10999991E-02  -1.36655240E-06
   4.11499999E-02  -1.35486221E-06
   4.12000008E-02  -1.34223274E-06
   4.12500016E-02  -1.32865296E-06
   4.12999988E-02  -1.31411150E-06
   4.13499996E-02  -1.29859791E-06
   4.14000005E-02  -1.28210138E-06
   4.14500013E-02  -1.26461157E-06
   4.14999984E-02  -1.24611950E-06
   4.15499993E-02  -1.22661538E-06
   4.16000001E-02  -1.20609013E-06
   4.16500010E-02  -1.18453568E-06
   4.17000018E-02  -1.16194326E-06
   4.17499989E-02  -1.13830492E-06
   4.17999998E-02  -1.11361351E-06
   4.18500006E-02  -1.08786196E-06
   4.19000015E-02  -1.06104380E-06
   4.19499986E-02  -1.03315313E-06
   4.19999994E-02  -1.00418401E-06
   4.20500003E-02  -9.74131467E-07
   4.21000011E-02  -9.42990539E-07
   4.21499982E-02  -9.10757137E-07
   4.21999991E-02  -8.77427226E-07
   4.22499999E-02  -8.42997849E-07
   4.23000008E-02  -8.07466620E-07
   4.23500016E-02  -7.70831377E-07
   4.23999988E-02  -7.33090189E-07
   4.24499996E-02  -6.94241976E-07
   4.25000004E-02  -6.54286509E-07
   4.25500013E-02  -6.13223790E-07
   4.25999984E-02  -5.71054557E-07
   4.26499993E-02  -5.27779775E-07
   4.27000001E-02  -4.83401493E-07
   4.27500010E-02  -4.37922097E-07
   4.28000018E-02  -3.91344884E-07