   0.00000000       0.00000000    
   4.99999987E-05   0.00000000    
   9.99999975E-05   0.00000000    
   1.50000007E-04   0.00000000    
   1.99999995E-04  -8.71817518E-24
   2.50000012E-04  -8.87621116E-23
   3.00000014E-04  -4.88124712E-22
   3.49999988E-04  -1.93304879E-21
   3.99999990E-04  -6.18542236E-21
   4.49999992E-04  -1.69988120E-20
   5.00000024E-04  -4.16409086E-20
   5.49999997E-04  -9.31864713E-20
   6.00000028E-04  -1.93823565E-19
   6.50000002E-04  -3.79456957E-19
   6.99999975E-04  -7.05935839E-19
   7.50000007E-04  -1.25727824E-18
   7.99999980E-04  -2.15631117E-18
   8.50000011E-04  -3.57819639E-18
   8.99999985E-04  -5.76735924E-18
   9.50000016E-04  -9.05838706E-18
   1.00000005E-03  -1.39015295E-17
   1.04999996E-03  -2.08934705E-17
   1.09999999E-03  -3.08141057E-17
   1.15000003E-03  -4.46700957E-17
   1.20000006E-03  -6.37460717E-17
   1.24999997E-03  -8.96643601E-17
   1.30000000E-03  -1.24454167E-16
   1.35000004E-03  -1.70631293E-16
   1.39999995E-03  -2.31289281E-16
   1.44999998E-03  -3.10203476E-16
   1.50000001E-03  -4.11948492E-16
   1.55000004E-03  -5.42031206E-16
   1.59999996E-03  -7.07039683E-16
   1.64999999E-03  -9.14809665E-16
   1.70000002E-03  -1.17461066E-15
   1.75000005E-03  -1.49735149E-15
   1.79999997E-03  -1.89580860E-15
   1.85000000E-03  -2.38487674E-15
   1.90000003E-03  -2.98184460E-15
   1.94999995E-03  -3.70669876E-15
   2.00000009E-03  -4.58245163E-15
   2.05000001E-03  -5.63550332E-15
   2.09999993E-03  -6.89603107E-15
   2.15000007E-03  -8.39841214E-15
   2.19999999E-03  -1.01816850E-14
   2.24999990E-03  -1.22900406E-14
   2.30000005E-03  -1.47733574E-14
   2.34999997E-03  -1.76877657E-14
   2.40000011E-03  -2.10962687E-14
   2.45000003E-03  -2.50693936E-14
   2.49999994E-03  -2.96858892E-14
   2.55000009E-03  -3.50334690E-14
   2.60000001E-03  -4.12096199E-14
   2.64999992E-03  -4.83224233E-14
   2.70000007E-03  -5.64914462E-14
   2.74999999E-03  -6.58487005E-14
   2.79999990E-03  -7.65396386E-14
   2.85000005E-03  -8.87241940E-14
   2.89999996E-03  -1.02577885E-13
   2.95000011E-03  -1.18293003E-13
   3.00000003E-03  -1.36079814E-13
   3.04999994E-03  -1.56167830E-13
   3.10000009E-03  -1.78807164E-13
   3.15000000E-03  -2.04269951E-13
   3.19999992E-03  -2.32851797E-13
   3.25000007E-03  -2.64873274E-13
   3.29999998E-03  -3.00681545E-13
   3.34999990E-03  -3.40651986E-13
   3.40000005E-03  -3.85189927E-13
   3.44999996E-03  -4.34732410E-13
   3.50000011E-03  -4.89750005E-13
   3.55000002E-03  -5.50748791E-13
   3.59999994E-03  -6.18272089E-13
   3.65000009E-03  -6.92902983E-13
   3.70000000E-03  -7.75265865E-13
   3.74999992E-03  -8.66028711E-13
   3.80000006E-03  -9.65905524E-13
   3.84999998E-03  -1.07565833E-12
   3.89999989E-03  -1.19609964E-12
   3.94999981E-03  -1.32809497E-12
   4.00000019E-03  -1.47256469E-12
   4.05000011E-03  -1.63048687E-12
   4.10000002E-03  -1.80290006E-12
   4.14999994E-03  -1.99090549E-12
   4.19999985E-03  -2.19566964E-12
   4.25000023E-03  -2.41842700E-12
   4.30000015E-03  -2.66048273E-12
   4.35000006E-03  -2.92321527E-12
   4.39999998E-03  -3.20807898E-12
   4.44999989E-03  -3.51660736E-12
   4.49999981E-03  -3.85041565E-12
   4.55000019E-03  -4.21120343E-12
   4.60000010E-03  -4.60075641E-12
   4.65000002E-03  -5.02095154E-12
   4.69999993E-03  -5.47375730E-12
   4.74999985E-03  -5.96123888E-12
   4.80000023E-03  -6.48555905E-12
   4.85000014E-03  -7.04898162E-12
   4.90000006E-03  -7.65387319E-12
   4.94999997E-03  -8.30270921E-12
   4.99999989E-03  -8.99807139E-12
   5.04999980E-03  -9.74265373E-12
   5.10000018E-03  -1.05392648E-11
   5.15000010E-03  -1.13908301E-11
   5.20000001E-03  -1.23003933E-11
   5.24999993E-03  -1.32711177E-11
   5.29999984E-03  -1.43062940E-11
   5.35000023E-03  -1.54093353E-11
   5.40000014E-03  -1.65837812E-11
   5.45000006E-03  -1.78333043E-11
   5.49999997E-03  -1.91617052E-11
   5.54999989E-03  -2.05729184E-11
   5.59999980E-03  -2.20710152E-11
   5.65000018E-03  -2.36601971E-11
   5.70000010E-03  -2.53448044E-11
   5.75000001E-03  -2.71293162E-11
   5.79999993E-03  -2.90183433E-11
   5.84999984E-03  -3.10166476E-11
   5.90000022E-03  -3.31291210E-11
   5.95000014E-03  -3.53607976E-11
   6.00000005E-03  -3.77168505E-11
   6.04999997E-03  -4.02025843E-11
   6.09999988E-03  -4.28234531E-11
   6.14999980E-03  -4.55850427E-11
   6.20000018E-03  -4.84930707E-11
   6.25000009E-03  -5.15533970E-11
   6.30000001E-03  -5.47720098E-11
   6.34999992E-03  -5.81550294E-11
   6.39999984E-03  -6.17087006E-11
   6.45000022E-03  -6.54393831E-11
   6.50000013E-03  -6.93535923E-11
   6.55000005E-03  -7.34579272E-11
   6.59999996E-03  -7.77591255E-11
   6.64999988E-03  -8.22640081E-11
   6.69999979E-03  -8.69795277E-11
   6.75000018E-03  -9.19127205E-11
   6.80000009E-03  -9.70707265E-11
   6.85000001E-03  -1.02460769E-10
   6.89999992E-03  -1.08090148E-10
   6.94999984E-03  -1.13966253E-10
   7.00000022E-03  -1.20096544E-10
   7.05000013E-03  -1.26488514E-10
   7.10000005E-03  -1.33149727E-10
   7.14999996E-03  -1.40087789E-10
   7.19999988E-03  -1.47310331E-10
   7.24999979E-03  -1.54825042E-10
   7.30000017E-03  -1.62639568E-10
   7.35000009E-03  -1.70761585E-10
   7.40000000E-03  -1.79198781E-10
   7.44999992E-03  -1.87958774E-10
   7.49999983E-03  -1.97049169E-10
   7.55000021E-03  -2.06477557E-10
   7.60000013E-03  -2.16251433E-10
   7.65000004E-03  -2.26378208E-10
   7.69999996E-03  -2.36865222E-10
   7.74999987E-03  -2.47719678E-10
   7.79999979E-03  -2.58948724E-10
   7.84999970E-03  -2.70559325E-10
   7.89999962E-03  -2.82558255E-10
   7.95000046E-03  -2.94952202E-10
   8.00000038E-03  -3.07747577E-10
   8.05000030E-03  -3.20950627E-10
   8.10000021E-03  -3.34567374E-10
   8.15000013E-03  -3.48603535E-10
   8.20000004E-03  -3.63064634E-10
   8.24999996E-03  -3.77955806E-10
   8.29999987E-03  -3.93281990E-10
   8.34999979E-03  -4.09047657E-10
   8.39999970E-03  -4.25256996E-10
   8.44999962E-03  -4.41913811E-10
   8.50000046E-03  -4.59021487E-10
   8.55000038E-03  -4.76582995E-10
   8.60000029E-03  -4.94600749E-10
   8.65000021E-03  -5.13076859E-10
   8.70000012E-03  -5.32012767E-10
   8.75000004E-03  -5.51409418E-10
   8.79999995E-03  -5.71267311E-10
   8.84999987E-03  -5.91586113E-10
   8.89999978E-03  -6.12365159E-10
   8.94999970E-03  -6.33602892E-10
   8.99999961E-03  -6.55297094E-10
   9.05000046E-03  -6.77445100E-10
   9.10000037E-03  -7.00043246E-10
   9.15000029E-03  -7.23087201E-10
   9.20000020E-03  -7.46571804E-10
   9.25000012E-03  -7.70491171E-10
   9.30000003E-03  -7.94838473E-10
   9.34999995E-03  -8.19606050E-10
   9.39999986E-03  -8.44785186E-10
   9.44999978E-03  -8.70366390E-10
   9.49999969E-03  -8.96339059E-10
   9.54999961E-03  -9.22691590E-10
   9.60000046E-03  -9.49411549E-10
   9.65000037E-03  -9.76485115E-10
   9.70000029E-03  -1.00389774E-09
   9.75000020E-03  -1.03163333E-09
   9.80000012E-03  -1.05967501E-09
   9.85000003E-03  -1.08800446E-09
   9.89999995E-03  -1.11660203E-09
   9.94999986E-03  -1.14544718E-09
   9.99999978E-03  -1.17451782E-09
   1.00499997E-02  -1.20379062E-09
   1.00999996E-02  -1.23324095E-09
   1.01500005E-02  -1.26284261E-09
   1.02000004E-02  -1.29256839E-09
   1.02500003E-02  -1.32238909E-09
   1.03000002E-02  -1.35227474E-09
   1.03500001E-02  -1.38219325E-09
   1.04000000E-02  -1.41211143E-09
   1.04499999E-02  -1.44199430E-09
   1.04999999E-02  -1.47180568E-09
   1.05499998E-02  -1.50150747E-09
   1.05999997E-02  -1.53106006E-09
   1.06499996E-02  -1.56042246E-09
   1.07000005E-02  -1.58955160E-09
   1.07500004E-02  -1.61840319E-09
   1.08000003E-02  -1.64693115E-09
   1.08500002E-02  -1.67508740E-09
   1.09000001E-02  -1.70282244E-09
   1.09500000E-02  -1.73008530E-09
   1.09999999E-02  -1.75682269E-09
   1.10499999E-02  -1.78297999E-09
   1.10999998E-02  -1.80850102E-09
   1.11499997E-02  -1.83332705E-09
   1.11999996E-02  -1.85739868E-09
   1.12500004E-02  -1.88065385E-09
   1.13000004E-02  -1.90302951E-09
   1.13500003E-02  -1.92446015E-09
   1.14000002E-02  -1.94487892E-09
   1.14500001E-02  -1.96421701E-09
   1.15000000E-02  -1.98240380E-09
   1.15499999E-02  -1.99936778E-09
   1.15999999E-02  -2.01503481E-09
   1.16499998E-02  -2.02932915E-09
   1.16999997E-02  -2.04217376E-09
   1.17499996E-02  -2.05348982E-09
   1.18000004E-02  -2.06319672E-09
   1.18500004E-02  -2.07121253E-09
   1.19000003E-02  -2.07745310E-09
   1.19500002E-02  -2.08183382E-09
   1.20000001E-02  -2.08426743E-09
   1.20500000E-02  -2.08466600E-09
   1.20999999E-02  -2.08294026E-09
   1.21499998E-02  -2.07899853E-09
   1.21999998E-02  -2.07274908E-09
   1.22499997E-02  -2.06409778E-09
   1.22999996E-02  -2.05295003E-09
   1.23500004E-02  -2.03920969E-09
   1.24000004E-02  -2.02278017E-09
   1.24500003E-02  -2.00356265E-09
   1.25000002E-02  -1.98145855E-09
   1.25500001E-02  -1.95636751E-09
   1.26000000E-02  -1.92818872E-09
   1.26499999E-02  -1.89682070E-09
   1.26999998E-02  -1.86216098E-09
   1.27499998E-02  -1.82410675E-09
   1.27999997E-02  -1.78255477E-09
   1.28499996E-02  -1.73740156E-09
   1.29000004E-02  -1.68854286E-09
   1.29500004E-02  -1.63587455E-09
   1.30000003E-02  -1.57929236E-09
   1.30500002E-02  -1.51869239E-09
   1.31000001E-02  -1.45397028E-09
   1.31500000E-02  -1.38502243E-09
   1.31999999E-02  -1.31174527E-09
   1.32499998E-02  -1.23403621E-09
   1.32999998E-02  -1.15179311E-09
   1.33499997E-02  -1.06491427E-09
   1.33999996E-02  -9.73299330E-10
   1.34500004E-02  -8.76849149E-10
   1.35000004E-02  -7.75465525E-10
   1.35500003E-02  -6.69051647E-10
   1.36000002E-02  -5.57512314E-10
   1.36500001E-02  -4.40754017E-10
   1.37000000E-02  -3.18685189E-10
   1.37499999E-02  -1.91216168E-10
   1.37999998E-02  -5.82596471E-11
   1.38499998E-02   8.02693814E-11
   1.38999997E-02   2.24453359E-10
   1.39499996E-02   3.74371922E-10
   1.40000004E-02   5.30101740E-10
   1.40500003E-02   6.91716462E-10
   1.41000003E-02   8.59286253E-10
   1.41500002E-02   1.03287767E-09
   1.42000001E-02   1.21255372E-09
   1.42500000E-02   1.39837353E-09
   1.42999999E-02   1.59039171E-09
   1.43499998E-02   1.78865922E-09
   1.43999998E-02   1.99322137E-09
   1.44499997E-02   2.20411933E-09
   1.44999996E-02   2.42138931E-09
   1.45500004E-02   2.64506195E-09
   1.46000003E-02   2.87516277E-09
   1.46500003E-02   3.11171111E-09
   1.47000002E-02   3.35472050E-09
   1.47500001E-02   3.60419827E-09
   1.48000000E-02   3.86014598E-09
   1.48499999E-02   4.12255741E-09
   1.48999998E-02   4.39142056E-09
   1.49499997E-02   4.66671457E-09
   1.49999997E-02   4.94841323E-09
   1.50499996E-02   5.23648191E-09
   1.51000004E-02   5.53087753E-09
   1.51500003E-02   5.83154947E-09
   1.52000003E-02   6.13843776E-09
   1.52500002E-02   6.45147535E-09
   1.53000001E-02   6.77058587E-09
   1.53500000E-02   7.09568271E-09
   1.53999999E-02   7.42667172E-09
   1.54499998E-02   7.76344677E-09
   1.54999997E-02   8.10589373E-09
   1.55499997E-02   8.45388826E-09
   1.55999996E-02   8.80729534E-09
   1.56500004E-02   9.16596843E-09
   1.56999994E-02   9.52975121E-09
   1.57500003E-02   9.89847493E-09
   1.57999992E-02   1.02719637E-08
   1.58500001E-02   1.06500240E-08
   1.59000009E-02   1.10324541E-08
   1.59499999E-02   1.14190399E-08
   1.60000008E-02   1.18095551E-08
   1.60499997E-02   1.22037598E-08
   1.61000006E-02   1.26014044E-08
   1.61499996E-02   1.30022233E-08
   1.62000004E-02   1.34059368E-08
   1.62499994E-02   1.38122562E-08
   1.63000003E-02   1.42208769E-08
   1.63499992E-02   1.46314800E-08
   1.64000001E-02   1.50437351E-08
   1.64500009E-02   1.54572941E-08
   1.64999999E-02   1.58717981E-08
   1.65500008E-02   1.62868705E-08
   1.65999997E-02   1.67021259E-08
   1.66500006E-02   1.71171592E-08
   1.66999996E-02   1.75315513E-08
   1.67500004E-02   1.79448705E-08
   1.67999994E-02   1.83566673E-08
   1.68500002E-02   1.87664781E-08
   1.68999992E-02   1.91738252E-08
   1.69500001E-02   1.95782146E-08
   1.70000009E-02   1.99791348E-08
   1.70499999E-02   2.03760653E-08
   1.71000008E-02   2.07684607E-08
   1.71499997E-02   2.11557687E-08
   1.72000006E-02   2.15374190E-08
   1.72499996E-02   2.19128200E-08
   1.73000004E-02   2.22813732E-08
   1.73499994E-02   2.26424550E-08
   1.74000002E-02   2.29954367E-08
   1.74499992E-02   2.33396680E-08
   1.75000001E-02   2.36744828E-08
   1.75500009E-02   2.39992026E-08
   1.75999999E-02   2.43131311E-08
   1.76500008E-02   2.46155594E-08
   1.76999997E-02   2.49057628E-08
   1.77500006E-02   2.51829970E-08
   1.77999996E-02   2.54465089E-08
   1.78500004E-02   2.56955275E-08
   1.78999994E-02   2.59292694E-08
   1.79500002E-02   2.61469353E-08
   1.79999992E-02   2.63477133E-08
   1.80500001E-02   2.65307811E-08
   1.81000009E-02   2.66952949E-08
   1.81499999E-02   2.68404001E-08
   1.82000007E-02   2.69652354E-08
   1.82499997E-02   2.70689231E-08
   1.83000006E-02   2.71505698E-08
   1.83499996E-02   2.72092713E-08
   1.84000004E-02   2.72441198E-08
   1.84499994E-02   2.72541865E-08
   1.85000002E-02   2.72385350E-08
   1.85499992E-02   2.71962222E-08
   1.86000001E-02   2.71262923E-08
   1.86500009E-02   2.70277845E-08
   1.86999999E-02   2.68997251E-08
   1.87500007E-02   2.67411302E-08
   1.87999997E-02   2.65510103E-08
   1.88500006E-02   2.63283724E-08
   1.88999996E-02   2.60722182E-08
   1.89500004E-02   2.57815369E-08
   1.89999994E-02   2.54553161E-08
   1.90500002E-02   2.50925378E-08
   1.90999992E-02   2.46921843E-08
   1.91500001E-02   2.42532323E-08
   1.92000009E-02   2.37746587E-08
   1.92499999E-02   2.32554331E-08
   1.93000007E-02   2.26945307E-08
   1.93499997E-02   2.20909229E-08
   1.94000006E-02   2.14435882E-08
   1.94499996E-02   2.07514983E-08
   1.95000004E-02   2.00136370E-08
   1.95499994E-02   1.92289846E-08
   1.96000002E-02   1.83965323E-08
   1.96499992E-02   1.75152728E-08
   1.97000001E-02   1.65842096E-08
   1.97500009E-02   1.56023479E-08
   1.97999999E-02   1.45687080E-08
   1.98500007E-02   1.34823184E-08
   1.98999997E-02   1.23422170E-08
   1.99500006E-02   1.11474563E-08
   1.99999996E-02   9.89710003E-09
   2.00500004E-02   8.59022897E-09
   2.00999994E-02   7.22593496E-09
   2.01500002E-02   5.80333248E-09
   2.01999992E-02   4.32155112E-09
   2.02500001E-02   2.77973977E-09
   2.03000009E-02   1.17706900E-09
   2.03499999E-02  -4.87269003E-10
   2.04000007E-02  -2.21405894E-09
   2.04499997E-02  -4.00406108E-09
   2.05000006E-02  -5.85800874E-09
   2.05499995E-02  -7.77660869E-09
   2.06000004E-02  -9.76053727E-09
   2.06499994E-02  -1.18104460E-08
   2.07000002E-02  -1.39269476E-08
   2.07499992E-02  -1.61106275E-08
   2.08000001E-02  -1.83620319E-08
   2.08500009E-02  -2.06816750E-08
   2.08999999E-02  -2.30700365E-08
   2.09500007E-02  -2.55275481E-08
   2.09999997E-02  -2.80546111E-08
   2.10500006E-02  -3.06515737E-08
   2.10999995E-02  -3.33187486E-08
   2.11500004E-02  -3.60564094E-08
   2.11999994E-02  -3.88647692E-08
   2.12500002E-02  -4.17439985E-08
   2.12999992E-02  -4.46942252E-08
   2.13500001E-02  -4.77155169E-08
   2.14000009E-02  -5.08078983E-08
   2.14499999E-02  -5.39713305E-08
   2.15000007E-02  -5.72057175E-08
   2.15499997E-02  -6.05109136E-08
   2.16000006E-02  -6.38867235E-08
   2.16499995E-02  -6.73328771E-08
   2.17000004E-02  -7.08490404E-08
   2.17499994E-02  -7.44348156E-08
   2.18000002E-02  -7.80897480E-08
   2.18499992E-02  -8.18133188E-08
   2.19000001E-02  -8.56049382E-08
   2.19500009E-02  -8.94639385E-08
   2.19999999E-02  -9.33895947E-08
   2.20500007E-02  -9.73810970E-08
   2.20999997E-02  -1.01437564E-07
   2.21500006E-02  -1.05558051E-07
   2.21999995E-02  -1.09741528E-07
   2.22500004E-02  -1.13986857E-07
   2.22999994E-02  -1.18292888E-07
   2.23500002E-02  -1.22658321E-07
   2.23999992E-02  -1.27081819E-07
   2.24500000E-02  -1.31561933E-07
   2.25000009E-02  -1.36097171E-07
   2.25499999E-02  -1.40685898E-07
   2.26000007E-02  -1.45326425E-07
   2.26499997E-02  -1.50016987E-07
   2.27000006E-02  -1.54755682E-07
   2.27499995E-02  -1.59540576E-07
   2.28000004E-02  -1.64369581E-07
   2.28499994E-02  -1.69240565E-07
   2.29000002E-02  -1.74151296E-07
   2.29499992E-02  -1.79099416E-07
   2.30000000E-02  -1.84082495E-07
   2.30500009E-02  -1.89097989E-07
   2.30999999E-02  -1.94143297E-07
   2.31500007E-02  -1.99215663E-07
   2.31999997E-02  -2.04312286E-07
   2.32500006E-02  -2.09430226E-07
   2.32999995E-02  -2.14566455E-07
   2.33500004E-02  -2.19717847E-07
   2.33999994E-02  -2.24881163E-07
   2.34500002E-02  -2.30053089E-07
   2.34999992E-02  -2.35230161E-07
   2.35500000E-02  -2.40408866E-07
   2.36000009E-02  -2.45585539E-07
   2.36499999E-02  -2.50756443E-07
   2.37000007E-02  -2.55917740E-07
   2.37499997E-02  -2.61065509E-07
   2.38000005E-02  -2.66195656E-07
   2.38499995E-02  -2.71304032E-07
   2.39000004E-02  -2.76386345E-07
   2.39499994E-02  -2.81438275E-07
   2.40000002E-02  -2.86455361E-07
   2.40499992E-02  -2.91432997E-07
   2.41000000E-02  -2.96366522E-07
   2.41500009E-02  -3.01251220E-07
   2.41999999E-02  -3.06082171E-07
   2.42500007E-02  -3.10854432E-07
   2.42999997E-02  -3.15562886E-07
   2.43500005E-02  -3.20202389E-07
   2.43999995E-02  -3.24767711E-07
   2.44500004E-02  -3.29253453E-07
   2.44999994E-02  -3.33654185E-07
   2.45500002E-02  -3.37964366E-07
   2.45999992E-02  -3.42178339E-07
   2.46500000E-02  -3.46290363E-07
   2.47000009E-02  -3.50294641E-07
   2.47499999E-02  -3.54185289E-07
   2.48000007E-02  -3.57956338E-07
   2.48499997E-02  -3.61601650E-07
   2.49000005E-02  -3.65115142E-07
   2.49499995E-02  -3.68490532E-07
   2.50000004E-02  -3.71721541E-07
   2.50499994E-02  -3.74801772E-07
   2.51000002E-02  -3.77724831E-07
   2.51499992E-02  -3.80484096E-07
   2.52000000E-02  -3.83073086E-07
   2.52500009E-02  -3.85485066E-07
   2.52999999E-02  -3.87713413E-07
   2.53500007E-02  -3.89751278E-07
   2.53999997E-02  -3.91591897E-07
   2.54500005E-02  -3.93228362E-07
   2.54999995E-02  -3.94653767E-07
   2.55500004E-02  -3.95861179E-07
   2.55999994E-02  -3.96843546E-07
   2.56500002E-02  -3.97593851E-07
   2.56999992E-02  -3.98104987E-07
   2.57500000E-02  -3.98369878E-07
   2.58000009E-02  -3.98381388E-07
   2.58499999E-02  -3.98132357E-07
   2.59000007E-02  -3.97615651E-07
   2.59499997E-02  -3.96824078E-07
   2.60000005E-02  -3.95750419E-07
   2.60499995E-02  -3.94387484E-07
   2.61000004E-02  -3.92728140E-07
   2.61499994E-02  -3.90765166E-07
   2.62000002E-02  -3.88491401E-07
   2.62499992E-02  -3.85899710E-07
   2.63000000E-02  -3.82982961E-07
   2.63500009E-02  -3.79733990E-07
   2.63999999E-02  -3.76145806E-07
   2.64500007E-02  -3.72211304E-07
   2.64999997E-02  -3.67923548E-07
   2.65500005E-02  -3.63275575E-07
   2.65999995E-02  -3.58260507E-07
   2.66500004E-02  -3.52871524E-07
   2.66999993E-02  -3.47101832E-07
   2.67500002E-02  -3.40944780E-07
   2.67999992E-02  -3.34393718E-07
   2.68500000E-02  -3.27442194E-07
   2.69000009E-02  -3.20083728E-07
   2.69499999E-02  -3.12311982E-07
   2.70000007E-02  -3.04120761E-07
   2.70499997E-02  -2.95503924E-07
   2.71000005E-02  -2.86455503E-07
   2.71499995E-02  -2.76969615E-07
   2.72000004E-02  -2.67040491E-07
   2.72499993E-02  -2.56662588E-07
   2.73000002E-02  -2.45830392E-07
   2.73499992E-02  -2.34538589E-07
   2.74000000E-02  -2.22782077E-07
   2.74500009E-02  -2.10555868E-07
   2.74999999E-02  -1.97855130E-07
   2.75500007E-02  -1.84675272E-07
   2.75999997E-02  -1.71011834E-07
   2.76500005E-02  -1.56860594E-07
   2.76999995E-02  -1.42217488E-07
   2.77500004E-02  -1.27078692E-07
   2.77999993E-02  -1.11440606E-07
   2.78500002E-02  -9.52998462E-08
   2.78999992E-02  -7.86532510E-08
   2.79500000E-02  -6.14979143E-08
   2.80000009E-02  -4.38311574E-08
   2.80499998E-02  -2.56505803E-08
   2.81000007E-02  -6.95402180E-09
   2.81499997E-02   1.22603936E-08
   2.82000005E-02   3.19942615E-08
   2.82499995E-02   5.22489003E-08
   2.83000004E-02   7.30253547E-08
   2.83499993E-02   9.43243137E-08
   2.84000002E-02   1.16146204E-07
   2.84499992E-02   1.38491160E-07
   2.85000000E-02   1.61358940E-07
   2.85500009E-02   1.84749013E-07
   2.85999998E-02   2.08660509E-07
   2.86500007E-02   2.33092209E-07
   2.86999997E-02   2.58042519E-07
   2.87500005E-02   2.83509479E-07
   2.87999995E-02   3.09490872E-07
   2.88500004E-02   3.35983941E-07
   2.88999993E-02   3.62985730E-07
   2.89500002E-02   3.90492772E-07
   2.89999992E-02   4.18501230E-07
   2.90500000E-02   4.47006926E-07
   2.91000009E-02   4.76005226E-07
   2.91499998E-02   5.05491130E-07
   2.92000007E-02   5.35459151E-07
   2.92499997E-02   5.65903406E-07
   2.93000005E-02   5.96817699E-07
   2.93499995E-02   6.28195266E-07
   2.94000003E-02   6.60028888E-07
   2.94499993E-02   6.92310948E-07
   2.95000002E-02   7.25033487E-07
   2.95499992E-02   7.58187980E-07
   2.96000000E-02   7.91765387E-07
   2.96500009E-02   8.25756331E-07
   2.96999998E-02   8.60150863E-07
   2.97500007E-02   8.94938694E-07
   2.97999997E-02   9.30108854E-07
   2.98500005E-02   9.65650088E-07
   2.98999995E-02   1.00155069E-06
   2.99500003E-02   1.03779803E-06
   2.99999993E-02   1.07437961E-06
   3.00500002E-02   1.11128213E-06
   3.00999992E-02   1.14849172E-06
   3.01500000E-02   1.18599417E-06
   3.02000009E-02   1.22377469E-06
   3.02499998E-02   1.26181794E-06
   3.03000007E-02   1.30010812E-06
   3.03499997E-02   1.33862909E-06
   3.04000005E-02   1.37736390E-06
   3.04499995E-02   1.41629539E-06
   3.05000003E-02   1.45540571E-06
   3.05499993E-02   1.49467655E-06
   3.06000002E-02   1.53408905E-06
   3.06499992E-02   1.57362376E-06
   3.07000000E-02   1.61326102E-06
   3.07500008E-02   1.65298036E-06
   3.07999998E-02   1.69276097E-06
   3.08500007E-02   1.73258161E-06
   3.08999997E-02   1.77242021E-06
   3.09500005E-02   1.81225471E-06
   3.09999995E-02   1.85206216E-06
   3.10500003E-02   1.89181935E-06
   3.10999993E-02   1.93150231E-06
   3.11500002E-02   1.97108670E-06
   3.11999992E-02   2.01054786E-06
   3.12500000E-02   2.04986077E-06
   3.13000008E-02   2.08899928E-06
   3.13500017E-02   2.12793725E-06
   3.13999988E-02   2.16664807E-06
   3.14499997E-02   2.20510469E-06
   3.15000005E-02   2.24327937E-06
   3.15500014E-02   2.28114459E-06
   3.15999985E-02   2.31867170E-06
   3.16499993E-02   2.35583161E-06
   3.17000002E-02   2.39259543E-06
   3.17500010E-02   2.42893339E-06
   3.18000019E-02   2.46481545E-06
   3.18499990E-02   2.50021117E-06
   3.18999998E-02   2.53508961E-06
   3.19500007E-02   2.56941962E-06
   3.20000015E-02   2.60316983E-06
   3.20499986E-02   2.63630818E-06
   3.20999995E-02   2.66880238E-06
   3.21500003E-02   2.70061992E-06
   3.22000012E-02   2.73172805E-06
   3.22499983E-02   2.76209335E-06
   3.22999991E-02   2.79168262E-06
   3.23500000E-02   2.82046221E-06
   3.24000008E-02   2.84839803E-06
   3.24500017E-02   2.87545595E-06
   3.24999988E-02   2.90160119E-06
   3.25499997E-02   2.92679943E-06
   3.26000005E-02   2.95101563E-06
   3.26500013E-02   2.97421502E-06
   3.26999985E-02   2.99636213E-06
   3.27499993E-02   3.01742193E-06
   3.28000002E-02   3.03735851E-06
   3.28500010E-02   3.05613662E-06
   3.29000019E-02   3.07372079E-06
   3.29499990E-02   3.09007487E-06
   3.29999998E-02   3.10516293E-06
   3.30500007E-02   3.11894951E-06
   3.31000015E-02   3.13139844E-06
   3.31499986E-02   3.14247427E-06
   3.31999995E-02   3.15214083E-06
   3.32500003E-02   3.16036244E-06
   3.33000012E-02   3.16710361E-06
   3.33499983E-02   3.17232866E-06
   3.33999991E-02   3.17600166E-06
   3.34500000E-02   3.17808758E-06
   3.35000008E-02   3.17855120E-06
   3.35500017E-02   3.17735726E-06
   3.35999988E-02   3.17447098E-06
   3.36499996E-02   3.16985779E-06
   3.37000005E-02   3.16348337E-06
   3.37500013E-02   3.15531338E-06
   3.37999985E-02   3.14531417E-06
   3.38499993E-02   3.13345208E-06
   3.39000002E-02   3.11969416E-06
   3.39500010E-02   3.10400765E-06
   3.40000018E-02   3.08636004E-06
   3.40499990E-02   3.06671973E-06
   3.40999998E-02   3.04505488E-06
   3.41500007E-02   3.02133458E-06
   3.42000015E-02   2.99552835E-06
   3.42499986E-02   2.96760572E-06
   3.42999995E-02   2.93753783E-06
   3.43500003E-02   2.90529579E-06
   3.44000012E-02   2.87085118E-06
   3.44499983E-02   2.83417648E-06
   3.44999991E-02   2.79524443E-06
   3.45500000E-02   2.75402886E-06
   3.46000008E-02   2.71050453E-06
   3.46500017E-02   2.66464644E-06
   3.46999988E-02   2.61643072E-06
   3.47499996E-02   2.56583394E-06
   3.48000005E-02   2.51283382E-06
   3.48500013E-02   2.45740875E-06
   3.48999985E-02   2.39953783E-06
   3.49499993E-02   2.33920196E-06
   3.50000001E-02   2.27638179E-06
   3.50500010E-02   2.21105984E-06
   3.51000018E-02   2.14321881E-06
   3.51499990E-02   2.07284324E-06
   3.51999998E-02   1.99991837E-06
   3.52500007E-02   1.92443031E-06
   3.53000015E-02   1.84636644E-06
   3.53499986E-02   1.76571552E-06
   3.53999995E-02   1.68246720E-06
   3.54500003E-02   1.59661226E-06
   3.55000012E-02   1.50814287E-06
   3.55499983E-02   1.41705220E-06
   3.55999991E-02   1.32333514E-06
   3.56500000E-02   1.22698737E-06
   3.57000008E-02   1.12800615E-06
   3.57500017E-02   1.02638990E-06
   3.57999988E-02   9.22138668E-07
   3.58499996E-02   8.15253657E-07
   3.59000005E-02   7.05737648E-07
   3.59500013E-02   5.93594677E-07
   3.59999985E-02   4.78830430E-07
   3.60499993E-02   3.61451981E-07
   3.61000001E-02   2.41467944E-07
   3.61500010E-02   1.18888394E-07
   3.62000018E-02  -6.27497965E-09
   3.62499990E-02  -1.34008957E-07
   3.62999998E-02  -2.64298706E-07
   3.63500006E-02  -3.97127735E-07
   3.64000015E-02  -5.32477998E-07
   3.64499986E-02  -6.70329769E-07
   3.64999995E-02  -8.10661618E-07
   3.65500003E-02  -9.53450467E-07
   3.66000012E-02  -1.09867153E-06
   3.66499983E-02  -1.24629844E-06
   3.66999991E-02  -1.39630288E-06
   3.67500000E-02  -1.54865484E-06
   3.68000008E-02  -1.70332248E-06
   3.68500017E-02  -1.86027216E-06
   3.68999988E-02  -2.01946887E-06
   3.69499996E-02  -2.18087530E-06
   3.70000005E-02  -2.34445270E-06
   3.70500013E-02  -2.51015990E-06
   3.70999984E-02  -2.67795463E-06
   3.71499993E-02  -2.84779185E-06
   3.72000001E-02  -3.01962609E-06
   3.72500010E-02  -3.19340870E-06
   3.73000018E-02  -3.36908965E-06
   3.73499990E-02  -3.54661711E-06
   3.73999998E-02  -3.72593718E-06
   3.74500006E-02  -3.90699415E-06
   3.75000015E-02  -4.08973074E-06
   3.75499986E-02  -4.27408713E-06
   3.75999995E-02  -4.46000240E-06
   3.76500003E-02  -4.64741288E-06
   3.77000012E-02  -4.83625354E-06
   3.77499983E-02  -5.02645753E-06
   3.77999991E-02  -5.21795619E-06
   3.78500000E-02  -5.41067811E-06
   3.79000008E-02  -5.60455101E-06
   3.79500017E-02  -5.79950029E-06
   3.79999988E-02  -5.99545001E-06
   3.80499996E-02  -6.19232196E-06
   3.81000005E-02  -6.39003520E-06
   3.81500013E-02  -6.58850968E-06
   3.81999984E-02  -6.78766128E-06
   3.82499993E-02  -6.98740314E-06
   3.83000001E-02  -7.18764841E-06
   3.83500010E-02  -7.38830795E-06
   3.84000018E-02  -7.58929218E-06
   3.84499989E-02  -7.79050788E-06
   3.84999998E-02  -7.99186091E-06
   3.85500006E-02  -8.19325578E-06
   3.86000015E-02  -8.39459426E-06
   3.86499986E-02  -8.59577722E-06
   3.86999995E-02  -8.79670279E-06
   3.87500003E-02  -8.99727092E-06
   3.88000011E-02  -9.19737522E-06
   3.88499983E-02  -9.39691290E-06
   3.88999991E-02  -9.59577392E-06
   3.89500000E-02  -9.79385095E-06
   3.90000008E-02  -9.99103395E-06
   3.90500017E-02  -1.01872110E-05
   3.90999988E-02  -1.03822695E-05
   3.91499996E-02  -1.05760946E-05
   3.92000005E-02  -1.07685719E-05
   3.92500013E-02  -1.09595831E-05
   3.92999984E-02  -1.11490117E-05
   3.93499993E-02  -1.13367378E-05
   3.94000001E-02  -1.15226403E-05
   3.94500010E-02  -1.17065993E-05
   3.95000018E-02  -1.18884909E-05
   3.95499989E-02  -1.20681916E-05
   3.95999998E-02  -1.22455758E-05
   3.96500006E-02  -1.24205189E-05
   3.97000015E-02  -1.25928964E-05
   3.97499986E-02  -1.27625781E-05
   3.97999994E-02  -1.29294367E-05
   3.98500003E-02  -1.30933422E-05
   3.99000011E-02  -1.32541654E-05
   3.99499983E-02  -1.34117781E-05
   3.99999991E-02  -1.35660484E-05
   4.00500000E-02  -1.37168454E-05
   4.01000008E-02  -1.38640371E-05
   4.01500016E-02  -1.40074926E-05
   4.01999988E-02  -1.41470764E-05
   4.02499996E-02  -1.42826584E-05
   4.03000005E-02  -1.44141040E-05
   4.03500013E-02  -1.45412814E-05
   4.03999984E-02  -1.46640577E-05
   4.04499993E-02  -1.47822984E-05
   4.05000001E-02  -1.48958725E-05
   4.05500010E-02  -1.50046444E-05
   4.06000018E-02  -1.51084814E-05
   4.06499989E-02  -1.52072535E-05
   4.06999998E-02  -1.53008259E-05
   4.07500006E-02  -1.53890687E-05
   4.08000015E-02  -1.54718473E-05
   4.08499986E-02  -1.55490325E-05
   4.08999994E-02  -1.56204933E-05
   4.09500003E-02  -1.56861006E-05
   4.10000011E-02  -1.57457271E-05
   4.10499983E-02  -1.57992417E-05
   4.10999991E-02  -1.58465173E-05
   4.11499999E-02  -1.58874282E-05
   4.12000008E-02  -1.59218525E-05
   4.12500016E-02  -1.59496612E-05
   4.12999988E-02  -1.59707324E-05
   4.13499996E-02  -1.59849460E-05
   4.14000005E-02  -1.59921819E-05
   4.14500013E-02  -1.59923202E-05
   4.14999984E-02  -1.59852425E-05
   4.15499993E-02  -1.59708343E-05
   4.16000001E-02  -1.59489828E-05
   4.16500010E-02  -1.59195733E-05
   4.17000018E-02  -1.58824969E-05
   4.17499989E-02  -1.58376442E-05
   4.17999998E-02  -1.57849081E-05
   4.18500006E-02  -1.57241866E-05
   4.19000015E-02  -1.56553760E-05
   4.19499986E-02  -1.55783746E-05
   4.19999994E-02  -1.54930840E-05
   4.20500003E-02  -1.53994115E-05
   4.21000011E-02  -1.52972625E-05
   4.21499982E-02  -1.51865470E-05
   4.21999991E-02  -1.50671767E-05
   4.22499999E-02  -1.49390671E-05
   4.23000008E-02  -1.48021372E-05
   4.23500016E-02  -1.46563052E-05
   4.23999988E-02  -1.45014965E-05
   4.24499996E-02  -1.43376365E-05
   4.25000004E-02  -1.41646578E-05
   4.25500013E-02  -1.39824897E-05
   4.25999984E-02  -1.37910702E-05
   4.26499993E-02  -1.35903374E-05
   4.27000001E-02  -1.33802341E-05
   4.27500010E-02  -1.31607085E-05
   4.28000018E-02  -1.29317104E-05