   0.00000000       0.00000000    
   4.99999987E-05   0.00000000    
   9.99999975E-05   0.00000000    
   1.50000007E-04   0.00000000    
   1.99999995E-04   4.11608451E-24
   2.50000012E-04   4.54596337E-23
   3.00000014E-04   2.69525473E-22
   3.49999988E-04   1.14342614E-21
   3.99999990E-04   3.89629291E-21
   4.49999992E-04   1.13423773E-20
   5.00000024E-04   2.92927467E-20
   5.49999997E-04   6.88235078E-20
   6.00000028E-04   1.49738522E-19
   6.50000002E-04   3.05641685E-19
   6.99999975E-04   5.91118000E-19
   7.50000007E-04   1.09161381E-18
   7.99999980E-04   1.93670423E-18
   8.50000011E-04   3.31753999E-18
   8.99999985E-04   5.50937195E-18
   9.50000016E-04   8.90016809E-18
   1.00000005E-03   1.40264636E-17
   1.04999996E-03   2.16176903E-17
   1.09999999E-03   3.26503772E-17
   1.15000003E-03   4.84137331E-17
   1.20000006E-03   7.05882649E-17
   1.24999997E-03   1.01339207E-16
   1.30000000E-03   1.43426713E-16
   1.35000004E-03   2.00334701E-16
   1.39999995E-03   2.76420864E-16
   1.44999998E-03   3.77089963E-16
   1.50000001E-03   5.08992686E-16
   1.55000004E-03   6.80253272E-16
   1.59999996E-03   9.00727742E-16
   1.64999999E-03   1.18229674E-15
   1.70000002E-03   1.53919471E-15
   1.75000005E-03   1.98837935E-15
   1.79999997E-03   2.54994504E-15
   1.85000000E-03   3.24758213E-15
   1.90000003E-03   4.10908515E-15
   1.94999995E-03   5.16691792E-15
   2.00000009E-03   6.45883332E-15
   2.05000001E-03   8.02855266E-15
   2.09999993E-03   9.92651548E-15
   2.15000007E-03   1.22106906E-14
   2.19999999E-03   1.49474651E-14
   2.24999990E-03   1.82126026E-14
   2.30000005E-03   2.20922947E-14
   2.34999997E-03   2.66842822E-14
   2.40000011E-03   3.20990725E-14
   2.45000003E-03   3.84612555E-14
   2.49999994E-03   4.59108900E-14
   2.55000009E-03   5.46050191E-14
   2.60000001E-03   6.47192803E-14
   2.64999992E-03   7.64496024E-14
   2.70000007E-03   9.00140558E-14
   2.74999999E-03   1.05654777E-13
   2.79999990E-03   1.23640017E-13
   2.85000005E-03   1.44266353E-13
   2.89999996E-03   1.67860924E-13
   2.95000011E-03   1.94783954E-13
   3.00000003E-03   2.25431259E-13
   3.04999994E-03   2.60236900E-13
   3.10000009E-03   2.99676110E-13
   3.15000000E-03   3.44268098E-13
   3.19999992E-03   3.94579307E-13
   3.25000007E-03   4.51226621E-13
   3.29999998E-03   5.14880673E-13
   3.34999990E-03   5.86269314E-13
   3.40000005E-03   6.66181574E-13
   3.44999996E-03   7.55471044E-13
   3.50000011E-03   8.55060001E-13
   3.55000002E-03   9.65943579E-13
   3.59999994E-03   1.08919406E-12
   3.65000009E-03   1.22596486E-12
   3.70000000E-03   1.37749545E-12
   3.74999992E-03   1.54511538E-12
   3.80000006E-03   1.73024973E-12
   3.84999998E-03   1.93442354E-12
   3.89999989E-03   2.15926712E-12
   3.94999981E-03   2.40652030E-12
   4.00000019E-03   2.67803878E-12
   4.05000011E-03   2.97579886E-12
   4.10000002E-03   3.30190259E-12
   4.14999994E-03   3.65858429E-12
   4.19999985E-03   4.04821402E-12
   4.25000023E-03   4.47330671E-12
   4.30000015E-03   4.93652385E-12
   4.35000006E-03   5.44068176E-12
   4.39999998E-03   5.98875680E-12
   4.44999989E-03   6.58389055E-12
   4.49999981E-03   7.22939720E-12
   4.55000019E-03   7.92876702E-12
   4.60000010E-03   8.68567458E-12
   4.65000002E-03   9.50398354E-12
   4.69999993E-03   1.03877497E-11
   4.74999985E-03   1.13412335E-11
   4.80000023E-03   1.23688976E-11
   4.85000014E-03   1.34754187E-11
   4.90000006E-03   1.46656888E-11
   4.94999997E-03   1.59448201E-11
   4.99999989E-03   1.73181573E-11
   5.04999980E-03   1.87912724E-11
   5.10000018E-03   2.03699765E-11
   5.15000010E-03   2.20603188E-11
   5.20000001E-03   2.38685963E-11
   5.24999993E-03   2.58013576E-11
   5.29999984E-03   2.78654010E-11
   5.35000023E-03   3.00677816E-11
   5.40000014E-03   3.24158166E-11
   5.45000006E-03   3.49170831E-11
   5.49999997E-03   3.75794187E-11
   5.54999989E-03   4.04109385E-11
   5.59999980E-03   4.34200141E-11
   5.65000018E-03   4.66152915E-11
   5.70000010E-03   5.00056836E-11
   5.75000001E-03   5.36003672E-11
   5.79999993E-03   5.74087965E-11
   5.84999984E-03   6.14406928E-11
   5.90000022E-03   6.57060309E-11
   5.95000014E-03   7.02150560E-11
   6.00000005E-03   7.49782667E-11
   6.04999997E-03   8.00064182E-11
   6.09999988E-03   8.53105295E-11
   6.14999980E-03   9.09018416E-11
   6.20000018E-03   9.67918454E-11
   6.25000009E-03   1.02992254E-10
   6.30000001E-03   1.09515015E-10
   6.34999992E-03   1.16372280E-10
   6.39999984E-03   1.23576399E-10
   6.45000022E-03   1.31139932E-10
   6.50000013E-03   1.39075612E-10
   6.55000005E-03   1.47396331E-10
   6.59999996E-03   1.56115135E-10
   6.64999988E-03   1.65245220E-10
   6.69999979E-03   1.74799883E-10
   6.75000018E-03   1.84792542E-10
   6.80000009E-03   1.95236688E-10
   6.85000001E-03   2.06145878E-10
   6.89999992E-03   2.17533727E-10
   6.94999984E-03   2.29413863E-10
   7.00000022E-03   2.41799886E-10
   7.05000013E-03   2.54705423E-10
   7.10000005E-03   2.68143951E-10
   7.14999996E-03   2.82128959E-10
   7.19999988E-03   2.96673797E-10
   7.24999979E-03   3.11791648E-10
   7.30000017E-03   3.27495558E-10
   7.35000009E-03   3.43798323E-10
   7.40000000E-03   3.60712515E-10
   7.44999992E-03   3.78250431E-10
   7.49999983E-03   3.96424005E-10
   7.55000021E-03   4.15244950E-10
   7.60000013E-03   4.34724368E-10
   7.65000004E-03   4.54873028E-10
   7.69999996E-03   4.75701256E-10
   7.74999987E-03   4.97218766E-10
   7.79999979E-03   5.19434773E-10
   7.84999970E-03   5.42357825E-10
   7.89999962E-03   5.65995750E-10
   7.95000046E-03   5.90355764E-10
   8.00000038E-03   6.15444140E-10
   8.05000030E-03   6.41266373E-10
   8.10000021E-03   6.67827071E-10
   8.15000013E-03   6.95130065E-10
   8.20000004E-03   7.23177851E-10
   8.24999996E-03   7.51972040E-10
   8.29999987E-03   7.81513132E-10
   8.34999979E-03   8.11800294E-10
   8.39999970E-03   8.42831638E-10
   8.44999962E-03   8.74603723E-10
   8.50000046E-03   9.07111886E-10
   8.55000038E-03   9.40349909E-10
   8.60000029E-03   9.74310077E-10
   8.65000021E-03   1.00898301E-09
   8.70000012E-03   1.04435771E-09
   8.75000004E-03   1.08042164E-09
   8.79999995E-03   1.11716003E-09
   8.84999987E-03   1.15455634E-09
   8.89999978E-03   1.19259236E-09
   8.94999970E-03   1.23124744E-09
   8.99999961E-03   1.27049915E-09
   9.05000046E-03   1.31032241E-09
   9.10000037E-03   1.35069045E-09
   9.15000029E-03   1.39157375E-09
   9.20000020E-03   1.43294032E-09
   9.25000012E-03   1.47475598E-09
   9.30000003E-03   1.51698365E-09
   9.34999995E-03   1.55958368E-09
   9.39999986E-03   1.60251390E-09
   9.44999978E-03   1.64572878E-09
   9.49999969E-03   1.68918057E-09
   9.54999961E-03   1.73281811E-09
   9.60000046E-03   1.77658732E-09
   9.65000037E-03   1.82043092E-09
   9.70000029E-03   1.86428850E-09
   9.75000020E-03   1.90809590E-09
   9.80000012E-03   1.95178651E-09
   9.85000003E-03   1.99528971E-09
   9.89999995E-03   2.03853157E-09
   9.94999986E-03   2.08143414E-09
   9.99999978E-03   2.12391660E-09
   1.00499997E-02   2.16589391E-09
   1.00999996E-02   2.20727725E-09
   1.01500005E-02   2.24797447E-09
   1.02000004E-02   2.28788899E-09
   1.02500003E-02   2.32692066E-09
   1.03000002E-02   2.36496489E-09
   1.03500001E-02   2.40191378E-09
   1.04000000E-02   2.43765474E-09
   1.04499999E-02   2.47207121E-09
   1.04999999E-02   2.50504262E-09
   1.05499998E-02   2.53644394E-09
   1.05999997E-02   2.56614641E-09
   1.06499996E-02   2.59401634E-09
   1.07000005E-02   2.61991562E-09
   1.07500004E-02   2.64370303E-09
   1.08000003E-02   2.66523181E-09
   1.08500002E-02   2.68435163E-09
   1.09000001E-02   2.70090728E-09
   1.09500000E-02   2.71473954E-09
   1.09999999E-02   2.72568479E-09
   1.10499999E-02   2.73357492E-09
   1.10999998E-02   2.73823764E-09
   1.11499997E-02   2.73949663E-09
   1.11999996E-02   2.73717071E-09
   1.12500004E-02   2.73107492E-09
   1.13000004E-02   2.72102030E-09
   1.13500003E-02   2.70681322E-09
   1.14000002E-02   2.68825606E-09
   1.14500001E-02   2.66514810E-09
   1.15000000E-02   2.63728350E-09
   1.15499999E-02   2.60445288E-09
   1.15999999E-02   2.56644350E-09
   1.16499998E-02   2.52303911E-09
   1.16999997E-02   2.47401899E-09
   1.17499996E-02   2.41915932E-09
   1.18000004E-02   2.35823316E-09
   1.18500004E-02   2.29101049E-09
   1.19000003E-02   2.21725815E-09
   1.19500002E-02   2.13673967E-09
   1.20000001E-02   2.04921635E-09
   1.20500000E-02   1.95444616E-09
   1.20999999E-02   1.85218574E-09
   1.21499998E-02   1.74218828E-09
   1.21999998E-02   1.62420588E-09
   1.22499997E-02   1.49798851E-09
   1.22999996E-02   1.36328460E-09
   1.23500004E-02   1.21984101E-09
   1.24000004E-02   1.06740372E-09
   1.24500003E-02   9.05717612E-10
   1.25000002E-02   7.34526995E-10
   1.25500001E-02   5.53575907E-10
   1.26000000E-02   3.62608360E-10
   1.26499999E-02   1.61368613E-10
   1.26999998E-02  -5.03987893E-11
   1.27499998E-02  -2.72948275E-10
   1.27999997E-02  -5.06533038E-10
   1.28499996E-02  -7.51404883E-10
   1.29000004E-02  -1.00781350E-09
   1.29500004E-02  -1.27600641E-09
   1.30000003E-02  -1.55622903E-09
   1.30500002E-02  -1.84872273E-09
   1.31000001E-02  -2.15372631E-09
   1.31500000E-02  -2.47147414E-09
   1.31999999E-02  -2.80219692E-09
   1.32499998E-02  -3.14612048E-09
   1.32999998E-02  -3.50346507E-09
   1.33499997E-02  -3.87444610E-09
   1.33999996E-02  -4.25927249E-09
   1.34500004E-02  -4.65814676E-09
   1.35000004E-02  -5.07126385E-09
   1.35500003E-02  -5.49881207E-09
   1.36000002E-02  -5.94097083E-09
   1.36500001E-02  -6.39791287E-09
   1.37000000E-02  -6.86979806E-09
   1.37499999E-02  -7.35678007E-09
   1.37999998E-02  -7.85900056E-09
   1.38499998E-02  -8.37659186E-09
   1.38999997E-02  -8.90967211E-09
   1.39499996E-02  -9.45834966E-09
   1.40000004E-02  -1.00227213E-08
   1.40500003E-02  -1.06028697E-08
   1.41000003E-02  -1.11988614E-08
   1.41500002E-02  -1.18107533E-08
   1.42000001E-02  -1.24385799E-08
   1.42500000E-02  -1.30823690E-08
   1.42999999E-02  -1.37421257E-08
   1.43499998E-02  -1.44178403E-08
   1.43999998E-02  -1.51094834E-08
   1.44499997E-02  -1.58170117E-08
   1.44999996E-02  -1.65403602E-08
   1.45500004E-02  -1.72794437E-08
   1.46000003E-02  -1.80341555E-08
   1.46500003E-02  -1.88043696E-08
   1.47000002E-02  -1.95899368E-08
   1.47500001E-02  -2.03906882E-08
   1.48000000E-02  -2.12064304E-08
   1.48499999E-02  -2.20369465E-08
   1.48999998E-02  -2.28819950E-08
   1.49499997E-02  -2.37413058E-08
   1.49999997E-02  -2.46145877E-08
   1.50499996E-02  -2.55015209E-08
   1.51000004E-02  -2.64017554E-08
   1.51500003E-02  -2.73149166E-08
   1.52000003E-02  -2.82405974E-08
   1.52500002E-02  -2.91783682E-08
   1.53000001E-02  -3.01277581E-08
   1.53500000E-02  -3.10882804E-08
   1.53999999E-02  -3.20594005E-08
   1.54499998E-02  -3.30405605E-08
   1.54999997E-02  -3.40311708E-08
   1.55499997E-02  -3.50305989E-08
   1.55999996E-02  -3.60381911E-08
   1.56500004E-02  -3.70532511E-08
   1.56999994E-02  -3.80750471E-08
   1.57500003E-02  -3.91028117E-08
   1.57999992E-02  -4.01357383E-08
   1.58500001E-02  -4.11729886E-08
   1.59000009E-02  -4.22136779E-08
   1.59499999E-02  -4.32568896E-08
   1.60000008E-02  -4.43016610E-08
   1.60499997E-02  -4.53470008E-08
   1.61000006E-02  -4.63918681E-08
   1.61499996E-02  -4.74351864E-08
   1.62000004E-02  -4.84758331E-08
   1.62499994E-02  -4.95126464E-08
   1.63000003E-02  -5.05444220E-08
   1.63499992E-02  -5.15699128E-08
   1.64000001E-02  -5.25878185E-08
   1.64500009E-02  -5.35968212E-08
   1.64999999E-02  -5.45955317E-08
   1.65500008E-02  -5.55825324E-08
   1.65999997E-02  -5.65563525E-08
   1.66500006E-02  -5.75154822E-08
   1.66999996E-02  -5.84583688E-08
   1.67500004E-02  -5.93833995E-08
   1.67999994E-02  -6.02889401E-08
   1.68500002E-02  -6.11732887E-08
   1.68999992E-02  -6.20347080E-08
   1.69500001E-02  -6.28714147E-08
   1.70000009E-02  -6.36815827E-08
   1.70499999E-02  -6.44633289E-08
   1.71000008E-02  -6.52147349E-08
   1.71499997E-02  -6.59338397E-08
   1.72000006E-02  -6.66186182E-08
   1.72499996E-02  -6.72670097E-08
   1.73000004E-02  -6.78769112E-08
   1.73499994E-02  -6.84461838E-08
   1.74000002E-02  -6.89726249E-08
   1.74499992E-02  -6.94540034E-08
   1.75000001E-02  -6.98880385E-08
   1.75500009E-02  -7.02723923E-08
   1.75999999E-02  -7.06047061E-08
   1.76500008E-02  -7.08825638E-08
   1.76999997E-02  -7.11035142E-08
   1.77500006E-02  -7.12650632E-08
   1.77999996E-02  -7.13646742E-08
   1.78500004E-02  -7.13997679E-08
   1.78999994E-02  -7.13677366E-08
   1.79500002E-02  -7.12659229E-08
   1.79999992E-02  -7.10916481E-08
   1.80500001E-02  -7.08421695E-08
   1.81000009E-02  -7.05147372E-08
   1.81499999E-02  -7.01065517E-08
   1.82000007E-02  -6.96147850E-08
   1.82499997E-02  -6.90365738E-08
   1.83000006E-02  -6.83690260E-08
   1.83499996E-02  -6.76092284E-08
   1.84000004E-02  -6.67542324E-08
   1.84499994E-02  -6.58010535E-08
   1.85000002E-02  -6.47467004E-08
   1.85499992E-02  -6.35881463E-08
   1.86000001E-02  -6.23223499E-08
   1.86500009E-02  -6.09462489E-08
   1.86999999E-02  -5.94567560E-08
   1.87500007E-02  -5.78507802E-08
   1.87999997E-02  -5.61252023E-08
   1.88500006E-02  -5.42769030E-08
   1.88999996E-02  -5.23027452E-08
   1.89500004E-02  -5.01995849E-08
   1.89999994E-02  -4.79642814E-08
   1.90500002E-02  -4.55936728E-08
   1.90999992E-02  -4.30846114E-08
   1.91500001E-02  -4.04339460E-08
   1.92000009E-02  -3.76385216E-08
   1.92499999E-02  -3.46952014E-08
   1.93000007E-02  -3.16008482E-08
   1.93499997E-02  -2.83523462E-08
   1.94000006E-02  -2.49465852E-08
   1.94499996E-02  -2.13804743E-08
   1.95000004E-02  -1.76509420E-08
   1.95499994E-02  -1.37549474E-08
   1.96000002E-02  -9.68946345E-09
   1.96499992E-02  -5.45149970E-09
   1.97000001E-02  -1.03809705E-09
   1.97500009E-02   3.55366847E-09
   1.97999999E-02   8.32668334E-09
   1.98500007E-02   1.32837901E-08
   1.98999997E-02   1.84277855E-08
   1.99500006E-02   2.37614213E-08
   1.99999996E-02   2.92873903E-08
   2.00500004E-02   3.50083376E-08
   2.00999994E-02   4.09268388E-08
   2.01500002E-02   4.70454147E-08
   2.01999992E-02   5.33665094E-08
   2.02500001E-02   5.98924998E-08
   2.03000009E-02   6.66257023E-08
   2.03499999E-02   7.35683230E-08
   2.04000007E-02   8.07225220E-08
   2.04499997E-02   8.80903599E-08
   2.05000006E-02   9.56737765E-08
   2.05499995E-02   1.03474662E-07
   2.06000004E-02   1.11494778E-07
   2.06499994E-02   1.19735788E-07
   2.07000002E-02   1.28199247E-07
   2.07499992E-02   1.36886598E-07
   2.08000001E-02   1.45799191E-07
   2.08500009E-02   1.54938220E-07
   2.08999999E-02   1.64304780E-07
   2.09500007E-02   1.73899835E-07
   2.09999997E-02   1.83724197E-07
   2.10500006E-02   1.93778561E-07
   2.10999995E-02   2.04063454E-07
   2.11500004E-02   2.14579273E-07
   2.11999994E-02   2.25326247E-07
   2.12500002E-02   2.36304473E-07
   2.12999992E-02   2.47513924E-07
   2.13500001E-02   2.58954316E-07
   2.14000009E-02   2.70625264E-07
   2.14499999E-02   2.82526145E-07
   2.15000007E-02   2.94656218E-07
   2.15499997E-02   3.07014517E-07
   2.16000006E-02   3.19599962E-07
   2.16499995E-02   3.32411190E-07
   2.17000004E-02   3.45446722E-07
   2.17499994E-02   3.58704767E-07
   2.18000002E-02   3.72183479E-07
   2.18499992E-02   3.85880696E-07
   2.19000001E-02   3.99794061E-07
   2.19500009E-02   4.13920986E-07
   2.19999999E-02   4.28258687E-07
   2.20500007E-02   4.42804179E-07
   2.20999997E-02   4.57554194E-07
   2.21500006E-02   4.72505263E-07
   2.21999995E-02   4.87653665E-07
   2.22500004E-02   5.02995306E-07
   2.22999994E-02   5.18526178E-07
   2.23500002E-02   5.34241678E-07
   2.23999992E-02   5.50137145E-07
   2.24500000E-02   5.66207575E-07
   2.25000009E-02   5.82447740E-07
   2.25499999E-02   5.98852068E-07
   2.26000007E-02   6.15414933E-07
   2.26499997E-02   6.32130082E-07
   2.27000006E-02   6.48991374E-07
   2.27499995E-02   6.65992104E-07
   2.28000004E-02   6.83125450E-07
   2.28499994E-02   7.00384248E-07
   2.29000002E-02   7.17760884E-07
   2.29499992E-02   7.35247795E-07
   2.30000000E-02   7.52836854E-07
   2.30500009E-02   7.70519819E-07
   2.30999999E-02   7.88287934E-07
   2.31500007E-02   8.06132391E-07
   2.31999997E-02   8.24043866E-07
   2.32500006E-02   8.42012753E-07
   2.32999995E-02   8.60029274E-07
   2.33500004E-02   8.78083313E-07
   2.33999994E-02   8.96164408E-07
   2.34500002E-02   9.14261761E-07
   2.34999992E-02   9.32364287E-07
   2.35500000E-02   9.50460617E-07
   2.36000009E-02   9.68538984E-07
   2.36499999E-02   9.86587452E-07
   2.37000007E-02   1.00459363E-06
   2.37499997E-02   1.02254489E-06
   2.38000005E-02   1.04042840E-06
   2.38499995E-02   1.05823074E-06
   2.39000004E-02   1.07593848E-06
   2.39499994E-02   1.09353755E-06
   2.40000002E-02   1.11101394E-06
   2.40499992E-02   1.12835301E-06
   2.41000000E-02   1.14554007E-06
   2.41500009E-02   1.16255978E-06
   2.41999999E-02   1.17939692E-06
   2.42500007E-02   1.19603556E-06
   2.42999997E-02   1.21245989E-06
   2.43500005E-02   1.22865356E-06
   2.43999995E-02   1.24459996E-06
   2.44500004E-02   1.26028215E-06
   2.44999994E-02   1.27568296E-06
   2.45500002E-02   1.29078478E-06
   2.45999992E-02   1.30556998E-06
   2.46500000E-02   1.32002060E-06
   2.47000009E-02   1.33411822E-06
   2.47499999E-02   1.34784432E-06
   2.48000007E-02   1.36118001E-06
   2.48499997E-02   1.37410632E-06
   2.49000005E-02   1.38660391E-06
   2.49499995E-02   1.39865301E-06
   2.50000004E-02   1.41023418E-06
   2.50499994E-02   1.42132706E-06
   2.51000002E-02   1.43191141E-06
   2.51499992E-02   1.44196690E-06
   2.52000000E-02   1.45147283E-06
   2.52500009E-02   1.46040804E-06
   2.52999999E-02   1.46875163E-06
   2.53500007E-02   1.47648234E-06
   2.53999997E-02   1.48357867E-06
   2.54500005E-02   1.49001903E-06
   2.54999995E-02   1.49578148E-06
   2.55500004E-02   1.50084441E-06
   2.55999994E-02   1.50518531E-06
   2.56500002E-02   1.50878225E-06
   2.56999992E-02   1.51161282E-06
   2.57500000E-02   1.51365452E-06
   2.58000009E-02   1.51488507E-06
   2.58499999E-02   1.51528161E-06
   2.59000007E-02   1.51482141E-06
   2.59499997E-02   1.51348183E-06
   2.60000005E-02   1.51124004E-06
   2.60499995E-02   1.50807307E-06
   2.61000004E-02   1.50395806E-06
   2.61499994E-02   1.49887217E-06
   2.62000002E-02   1.49279231E-06
   2.62499992E-02   1.48569586E-06
   2.63000000E-02   1.47755986E-06
   2.63500009E-02   1.46836157E-06
   2.63999999E-02   1.45807803E-06
   2.64500007E-02   1.44668650E-06
   2.64999997E-02   1.43416457E-06
   2.65500005E-02   1.42048975E-06
   2.65999995E-02   1.40563952E-06
   2.66500004E-02   1.38959172E-06
   2.66999993E-02   1.37232405E-06
   2.67500002E-02   1.35381481E-06
   2.67999992E-02   1.33404194E-06
   2.68500000E-02   1.31298407E-06
   2.69000009E-02   1.29061982E-06
   2.69499999E-02   1.26692794E-06
   2.70000007E-02   1.24188762E-06
   2.70499997E-02   1.21547816E-06
   2.71000005E-02   1.18767935E-06
   2.71499995E-02   1.15847115E-06
   2.72000004E-02   1.12783368E-06
   2.72499993E-02   1.09574773E-06
   2.73000002E-02   1.06219443E-06
   2.73499992E-02   1.02715478E-06
   2.74000000E-02   9.90610829E-07
   2.74500009E-02   9.52544553E-07
   2.74999999E-02   9.12938674E-07
   2.75500007E-02   8.71776194E-07
   2.75999997E-02   8.29040630E-07
   2.76500005E-02   7.84716008E-07
   2.76999995E-02   7.38786866E-07
   2.77500004E-02   6.91238256E-07
   2.77999993E-02   6.42055795E-07
   2.78500002E-02   5.91225728E-07
   2.78999992E-02   5.38734753E-07
   2.79500000E-02   4.84570251E-07
   2.80000009E-02   4.28720313E-07
   2.80499998E-02   3.71173513E-07
   2.81000007E-02   3.11919251E-07
   2.81499997E-02   2.50947522E-07
   2.82000005E-02   1.88249103E-07
   2.82499995E-02   1.23815482E-07
   2.83000004E-02   5.76388572E-08
   2.83499993E-02  -1.02877626E-08
   2.84000002E-02  -7.99705830E-08
   2.84499992E-02  -1.51414952E-07
   2.85000000E-02  -2.24625424E-07
   2.85500009E-02  -2.99605773E-07
   2.85999998E-02  -3.76358770E-07
   2.86500007E-02  -4.54886418E-07
   2.86999997E-02  -5.35189599E-07
   2.87500005E-02  -6.17268540E-07
   2.87999995E-02  -7.01122417E-07
   2.88500004E-02  -7.86749240E-07
   2.88999993E-02  -8.74146281E-07
   2.89500002E-02  -9.63309731E-07
   2.89999992E-02  -1.05423487E-06
   2.90500000E-02  -1.14691557E-06
   2.91000009E-02  -1.24134499E-06
   2.91499998E-02  -1.33751519E-06
   2.92000007E-02  -1.43541695E-06
   2.92499997E-02  -1.53504004E-06
   2.93000005E-02  -1.63637299E-06
   2.93499995E-02  -1.73940316E-06
   2.94000003E-02  -1.84411704E-06
   2.94499993E-02  -1.95049984E-06
   2.95000002E-02  -2.05853553E-06
   2.95499992E-02  -2.16820627E-06
   2.96000000E-02  -2.27949431E-06
   2.96500009E-02  -2.39237966E-06
   2.96999998E-02  -2.50684116E-06
   2.97500007E-02  -2.62285675E-06
   2.97999997E-02  -2.74040281E-06
   2.98500005E-02  -2.85945430E-06
   2.98999995E-02  -2.97998508E-06
   2.99500003E-02  -3.10196788E-06
   2.99999993E-02  -3.22537358E-06
   3.00500002E-02  -3.35017262E-06
   3.00999992E-02  -3.47633318E-06
   3.01500000E-02  -3.60382273E-06
   3.02000009E-02  -3.73260673E-06
   3.02499998E-02  -3.86264992E-06
   3.03000007E-02  -3.99391502E-06
   3.03499997E-02  -4.12636336E-06
   3.04000005E-02  -4.25995586E-06
   3.04499995E-02  -4.39465111E-06
   3.05000003E-02  -4.53040684E-06
   3.05499993E-02  -4.66717893E-06
   3.06000002E-02  -4.80492145E-06
   3.06499992E-02  -4.94358801E-06
   3.07000000E-02  -5.08313042E-06
   3.07500008E-02  -5.22349956E-06
   3.07999998E-02  -5.36464313E-06
   3.08500007E-02  -5.50650975E-06
   3.08999997E-02  -5.64904485E-06
   3.09500005E-02  -5.79219341E-06
   3.09999995E-02  -5.93589903E-06
   3.10500003E-02  -6.08010305E-06
   3.10999993E-02  -6.22474499E-06
   3.11500002E-02  -6.36976529E-06
   3.11999992E-02  -6.51510118E-06
   3.12500000E-02  -6.66068900E-06
   3.13000008E-02  -6.80646326E-06
   3.13500017E-02  -6.95235804E-06
   3.13999988E-02  -7.09830465E-06
   3.14499997E-02  -7.24423398E-06
   3.15000005E-02  -7.39007555E-06
   3.15500014E-02  -7.53575750E-06
   3.15999985E-02  -7.68120663E-06
   3.16499993E-02  -7.82634652E-06
   3.17000002E-02  -7.97110442E-06
   3.17500010E-02  -8.11540122E-06
   3.18000019E-02  -8.25915777E-06
   3.18499990E-02  -8.40229677E-06
   3.18999998E-02  -8.54473546E-06
   3.19500007E-02  -8.68639108E-06
   3.20000015E-02  -8.82718177E-06
   3.20499986E-02  -8.96702295E-06
   3.20999995E-02  -9.10582821E-06
   3.21500003E-02  -9.24351025E-06
   3.22000012E-02  -9.37998357E-06
   3.22499983E-02  -9.51515722E-06
   3.22999991E-02  -9.64894207E-06
   3.23500000E-02  -9.78124626E-06
   3.24000008E-02  -9.91197885E-06
   3.24500017E-02  -1.00410452E-05
   3.24999988E-02  -1.01683527E-05
   3.25499997E-02  -1.02938056E-05
   3.26000005E-02  -1.04173087E-05
   3.26500013E-02  -1.05387662E-05
   3.26999985E-02  -1.06580801E-05
   3.27499993E-02  -1.07751521E-05
   3.28000002E-02  -1.08898821E-05
   3.28500010E-02  -1.10021720E-05
   3.29000019E-02  -1.11119216E-05
   3.29499990E-02  -1.12190301E-05
   3.29999998E-02  -1.13233946E-05
   3.30500007E-02  -1.14249142E-05
   3.31000015E-02  -1.15234861E-05
   3.31499986E-02  -1.16190076E-05
   3.31999995E-02  -1.17113759E-05
   3.32500003E-02  -1.18004855E-05
   3.33000012E-02  -1.18862326E-05
   3.33499983E-02  -1.19685137E-05
   3.33999991E-02  -1.20472241E-05
   3.34500000E-02  -1.21222574E-05
   3.35000008E-02  -1.21935109E-05
   3.35500017E-02  -1.22608781E-05
   3.35999988E-02  -1.23242544E-05
   3.36499996E-02  -1.23835343E-05
   3.37000005E-02  -1.24386124E-05
   3.37500013E-02  -1.24893841E-05
   3.37999985E-02  -1.25357446E-05
   3.38499993E-02  -1.25775896E-05
   3.39000002E-02  -1.26148134E-05
   3.39500010E-02  -1.26473142E-05
   3.40000018E-02  -1.26749865E-05
   3.40499990E-02  -1.26977284E-05
   3.40999998E-02  -1.27154362E-05
   3.41500007E-02  -1.27280073E-05
   3.42000015E-02  -1.27353414E-05
   3.42499986E-02  -1.27373369E-05
   3.42999995E-02  -1.27338935E-05
   3.43500003E-02  -1.27249123E-05
   3.44000012E-02  -1.27102949E-05
   3.44499983E-02  -1.26899422E-05
   3.44999991E-02  -1.26637588E-05
   3.45500000E-02  -1.26316490E-05
   3.46000008E-02  -1.25935167E-05
   3.46500017E-02  -1.25492707E-05
   3.46999988E-02  -1.24988173E-05
   3.47499996E-02  -1.24420658E-05
   3.48000005E-02  -1.23789259E-05
   3.48500013E-02  -1.23093105E-05
   3.48999985E-02  -1.22331312E-05
   3.49499993E-02  -1.21503044E-05
   3.50000001E-02  -1.20607447E-05
   3.50500010E-02  -1.19643719E-05
   3.51000018E-02  -1.18611051E-05
   3.51499990E-02  -1.17508653E-05
   3.51999998E-02  -1.16335759E-05
   3.52500007E-02  -1.15091625E-05
   3.53000015E-02  -1.13775504E-05
   3.53499986E-02  -1.12386706E-05
   3.53999995E-02  -1.10924548E-05
   3.54500003E-02  -1.09388357E-05
   3.55000012E-02  -1.07777487E-05
   3.55499983E-02  -1.06091320E-05
   3.55999991E-02  -1.04329265E-05
   3.56500000E-02  -1.02490740E-05
   3.57000008E-02  -1.00575198E-05
   3.57500017E-02  -9.85821134E-06
   3.57999988E-02  -9.65110030E-06
   3.58499996E-02  -9.43613850E-06
   3.59000005E-02  -9.21328228E-06
   3.59500013E-02  -8.98248800E-06
   3.59999985E-02  -8.74371926E-06
   3.60499993E-02  -8.49694061E-06
   3.61000001E-02  -8.24211747E-06
   3.61500010E-02  -7.97921984E-06
   3.62000018E-02  -7.70822226E-06
   3.62499990E-02  -7.42910061E-06
   3.62999998E-02  -7.14183443E-06
   3.63500006E-02  -6.84640690E-06
   3.64000015E-02  -6.54280348E-06
   3.64499986E-02  -6.23101323E-06
   3.64999995E-02  -5.91102889E-06
   3.65500003E-02  -5.58284728E-06
   3.66000012E-02  -5.24646794E-06
   3.66499983E-02  -4.90189359E-06
   3.66999991E-02  -4.54913197E-06
   3.67500000E-02  -4.18819263E-06
   3.68000008E-02  -3.81908967E-06
   3.68500017E-02  -3.44184218E-06
   3.68999988E-02  -3.05647040E-06
   3.69499996E-02  -2.66300026E-06
   3.70000005E-02  -2.26146108E-06
   3.70500013E-02  -1.85188617E-06
   3.70999984E-02  -1.43431248E-06
   3.71499993E-02  -1.00878128E-06
   3.72000001E-02  -5.75337594E-07
   3.72500010E-02  -1.34030387E-07
   3.73000018E-02   3.15087249E-07
   3.73499990E-02   7.71957957E-07
   3.73999998E-02   1.23652012E-06
   3.74500006E-02   1.70870828E-06
   3.75000015E-02   2.18845298E-06
   3.75499986E-02   2.67568021E-06
   3.75999995E-02   3.17031140E-06
   3.76500003E-02   3.67226448E-06
   3.77000012E-02   4.18145282E-06
   3.77499983E-02   4.69778524E-06
   3.77999991E-02   5.22116716E-06
   3.78500000E-02   5.75149807E-06
   3.79000008E-02   6.28867429E-06
   3.79500017E-02   6.83258804E-06
   3.79999988E-02   7.38312610E-06
   3.80499996E-02   7.94017160E-06
   3.81000005E-02   8.50360357E-06
   3.81500013E-02   9.07329559E-06
   3.81999984E-02   9.64911851E-06
   3.82499993E-02   1.02309377E-05
   3.83000001E-02   1.08186132E-05
   3.83500010E-02   1.14120039E-05
   3.84000018E-02   1.20109607E-05
   3.84499989E-02   1.26153327E-05
   3.84999998E-02   1.32249643E-05
   3.85500006E-02   1.38396936E-05
   3.86000015E-02   1.44593569E-05
   3.86499986E-02   1.50837850E-05
   3.86999995E-02   1.57128034E-05
   3.87500003E-02   1.63462373E-05
   3.88000011E-02   1.69839022E-05
   3.88499983E-02   1.76256144E-05
   3.88999991E-02   1.82711792E-05
   3.89500000E-02   1.89204075E-05
   3.90000008E-02   1.95730991E-05
   3.90500017E-02   2.02290539E-05
   3.90999988E-02   2.08880629E-05
   3.91499996E-02   2.15499167E-05
   3.92000005E-02   2.22144008E-05
   3.92500013E-02   2.28812969E-05
   3.92999984E-02   2.35503849E-05
   3.93499993E-02   2.42214373E-05
   3.94000001E-02   2.48942215E-05
   3.94500010E-02   2.55685100E-05
   3.95000018E-02   2.62440608E-05
   3.95499989E-02   2.69206339E-05
   3.95999998E-02   2.75979874E-05
   3.96500006E-02   2.82758756E-05
   3.97000015E-02   2.89540440E-05
   3.97499986E-02   2.96322378E-05
   3.97999994E-02   3.03102006E-05
   3.98500003E-02   3.09876741E-05
   3.99000011E-02   3.16643927E-05
   3.99499983E-02   3.23400891E-05
   3.99999991E-02   3.30144940E-05
   4.00500000E-02   3.36873272E-05
   4.01000008E-02   3.43583233E-05
   4.01500016E-02   3.50272021E-05
   4.01999988E-02   3.56936798E-05
   4.02499996E-02   3.63574763E-05
   4.03000005E-02   3.70183006E-05
   4.03500013E-02   3.76758690E-05
   4.03999984E-02   3.83298902E-05
   4.04499993E-02   3.89800625E-05
   4.05000001E-02   3.96260984E-05
   4.05500010E-02   4.02676997E-05
   4.06000018E-02   4.09045679E-05
   4.06499989E-02   4.15364048E-05
   4.06999998E-02   4.21629011E-05
   4.07500006E-02   4.27837549E-05
   4.08000015E-02   4.33986643E-05
   4.08499986E-02   4.40073200E-05
   4.08999994E-02   4.46094091E-05
   4.09500003E-02   4.52046261E-05
   4.10000011E-02   4.57926617E-05
   4.10499983E-02   4.63731994E-05
   4.10999991E-02   4.69459301E-05
   4.11499999E-02   4.75105408E-05
   4.12000008E-02   4.80667113E-05
   4.12500016E-02   4.86141362E-05
   4.12999988E-02   4.91525025E-05
   4.13499996E-02   4.96814864E-05
   4.14000005E-02   5.02007715E-05
   4.14500013E-02   5.07100485E-05
   4.14999984E-02   5.12090046E-05
   4.15499993E-02   5.16973123E-05
   4.16000001E-02   5.21746697E-05
   4.16500010E-02   5.26407603E-05
   4.17000018E-02   5.30952675E-05
   4.17499989E-02   5.35378822E-05
   4.17999998E-02   5.39682951E-05
   4.18500006E-02   5.43861897E-05
   4.19000015E-02   5.47912568E-05
   4.19499986E-02   5.51831872E-05
   4.19999994E-02   5.55616825E-05
   4.20500003E-02   5.59264299E-05
   4.21000011E-02   5.62771202E-05
   4.21499982E-02   5.66134549E-05
   4.21999991E-02   5.69351359E-05
   4.22499999E-02   5.72418685E-05
   4.23000008E-02   5.75333470E-05
   4.23500016E-02   5.78092877E-05
   4.23999988E-02   5.80693995E-05
   4.24499996E-02   5.83133951E-05
   4.25000004E-02   5.85409762E-05
   4.25500013E-02   5.87518589E-05
   4.25999984E-02   5.89457741E-05
   4.26499993E-02   5.91224452E-05
   4.27000001E-02   5.92815850E-05
   4.27500010E-02   5.94229350E-05
   4.28000018E-02   5.95462225E-05