   0.00000000       0.00000000    
   4.99999987E-05   0.00000000    
   9.99999975E-05   0.00000000    
   1.50000007E-04   0.00000000    
   1.99999995E-04  -1.44449106E-26
   2.50000012E-04  -1.52711318E-25
   3.00000014E-04  -8.70675740E-25
   3.49999988E-04  -3.56829713E-24
   3.99999990E-04  -1.17945118E-23
   4.49999992E-04  -3.34184230E-23
   5.00000024E-04  -8.42411497E-23
   5.49999997E-04  -1.93661515E-22
   6.00000028E-04  -4.13131606E-22
   6.50000002E-04  -8.28321419E-22
   6.99999975E-04  -1.57608724E-21
   7.50000007E-04  -2.86746057E-21
   7.99999980E-04  -5.01820185E-21
   8.50000011E-04  -8.48861226E-21
   8.99999985E-04  -1.39343841E-20
   9.50000016E-04  -2.22708670E-20
   1.00000005E-03  -3.47527817E-20
   1.04999996E-03  -5.30722700E-20
   1.09999999E-03  -7.94786863E-20
   1.15000003E-03  -1.16922290E-19
   1.20000006E-03  -1.69224584E-19
   1.24999997E-03  -2.41281528E-19
   1.30000000E-03  -3.39301965E-19
   1.35000004E-03  -4.71084425E-19
   1.39999995E-03  -6.46341612E-19
   1.44999998E-03  -8.77068496E-19
   1.50000001E-03  -1.17796671E-18
   1.55000004E-03  -1.56693020E-18
   1.59999996E-03  -2.06559738E-18
   1.64999999E-03  -2.69996901E-18
   1.70000002E-03  -3.50109571E-18
   1.75000005E-03  -4.50587655E-18
   1.79999997E-03  -5.75791408E-18
   1.85000000E-03  -7.30848565E-18
   1.90000003E-03  -9.21764249E-18
   1.94999995E-03  -1.15553641E-17
   2.00000009E-03  -1.44028589E-17
   2.05000001E-03  -1.78539954E-17
   2.09999993E-03  -2.20168612E-17
   2.15000007E-03  -2.70155534E-17
   2.19999999E-03  -3.29919730E-17
   2.24999990E-03  -4.01077512E-17
   2.30000005E-03  -4.85465651E-17
   2.34999997E-03  -5.85165962E-17
   2.40000011E-03  -7.02528134E-17
   2.45000003E-03  -8.40197524E-17
   2.49999994E-03  -1.00114662E-16
   2.55000009E-03  -1.18870711E-16
   2.60000001E-03  -1.40659919E-16
   2.64999992E-03  -1.65896895E-16
   2.70000007E-03  -1.95043193E-16
   2.74999999E-03  -2.28610831E-16
   2.79999990E-03  -2.67166632E-16
   2.85000005E-03  -3.11337124E-16
   2.89999996E-03  -3.61813062E-16
   2.95000011E-03  -4.19354948E-16
   3.00000003E-03  -4.84798143E-16
   3.04999994E-03  -5.59057468E-16
   3.10000009E-03  -6.43134753E-16
   3.15000000E-03  -7.38125686E-16
   3.19999992E-03  -8.45225379E-16
   3.25000007E-03  -9.65733709E-16
   3.29999998E-03  -1.10106416E-15
   3.34999990E-03  -1.25275336E-15
   3.40000005E-03  -1.42246520E-15
   3.44999996E-03  -1.61200005E-15
   3.50000011E-03  -1.82330279E-15
   3.55000002E-03  -2.05847450E-15
   3.59999994E-03  -2.31978120E-15
   3.65000009E-03  -2.60965854E-15
   3.70000000E-03  -2.93072320E-15
   3.74999992E-03  -3.28578692E-15
   3.80000006E-03  -3.67786407E-15
   3.84999998E-03  -4.11018037E-15
   3.89999989E-03  -4.58618874E-15
   3.94999981E-03  -5.10957760E-15
   4.00000019E-03  -5.68428014E-15
   4.05000011E-03  -6.31448451E-15
   4.10000002E-03  -7.00466178E-15
   4.14999994E-03  -7.75956549E-15
   4.19999985E-03  -8.58423762E-15
   4.25000023E-03  -9.48403225E-15
   4.30000015E-03  -1.04646253E-14
   4.35000006E-03  -1.15320139E-14
   4.39999998E-03  -1.26925600E-14
   4.44999989E-03  -1.39529908E-14
   4.49999981E-03  -1.53204035E-14
   4.55000019E-03  -1.68022826E-14
   4.60000010E-03  -1.84065223E-14
   4.65000002E-03  -2.01414338E-14
   4.69999993E-03  -2.20157466E-14
   4.74999985E-03  -2.40386494E-14
   4.80000023E-03  -2.62197778E-14
   4.85000014E-03  -2.85692693E-14
   4.90000006E-03  -3.10977338E-14
   4.94999997E-03  -3.38162691E-14
   4.99999989E-03  -3.67364965E-14
   5.04999980E-03  -3.98705693E-14
   5.10000018E-03  -4.32311860E-14
   5.15000010E-03  -4.68315843E-14
   5.20000001E-03  -5.06855808E-14
   5.24999993E-03  -5.48075853E-14
   5.29999984E-03  -5.92125971E-14
   5.35000023E-03  -6.39162388E-14
   5.40000014E-03  -6.89346922E-14
   5.45000006E-03  -7.42847082E-14
   5.49999997E-03  -7.99838237E-14
   5.54999989E-03  -8.60502126E-14
   5.59999980E-03  -9.25025979E-14
   5.65000018E-03  -9.93604477E-14
   5.70000010E-03  -1.06643908E-13
   5.75000001E-03  -1.14373775E-13
   5.79999993E-03  -1.22571509E-13
   5.84999984E-03  -1.31259261E-13
   5.90000022E-03  -1.40460018E-13
   5.95000014E-03  -1.50197278E-13
   6.00000005E-03  -1.60495207E-13
   6.04999997E-03  -1.71378821E-13
   6.09999988E-03  -1.82873844E-13
   6.14999980E-03  -1.95006568E-13
   6.20000018E-03  -2.07804002E-13
   6.25000009E-03  -2.21293958E-13
   6.30000001E-03  -2.35504921E-13
   6.34999992E-03  -2.50466043E-13
   6.39999984E-03  -2.66206897E-13
   6.45000022E-03  -2.82757867E-13
   6.50000013E-03  -3.00150123E-13
   6.55000005E-03  -3.18415460E-13
   6.59999996E-03  -3.37586106E-13
   6.64999988E-03  -3.57695183E-13
   6.69999979E-03  -3.78776004E-13
   6.75000018E-03  -4.00862693E-13
   6.80000009E-03  -4.23989999E-13
   6.85000001E-03  -4.48192725E-13
   6.89999992E-03  -4.73506759E-13
   6.94999984E-03  -4.99968231E-13
   7.00000022E-03  -5.27613272E-13
   7.05000013E-03  -5.56479233E-13
   7.10000005E-03  -5.86603086E-13
   7.14999996E-03  -6.18021910E-13
   7.19999988E-03  -6.50773923E-13
   7.24999979E-03  -6.84897614E-13
   7.30000017E-03  -7.20431093E-13
   7.35000009E-03  -7.57412525E-13
   7.40000000E-03  -7.95880126E-13
   7.44999992E-03  -8.35872224E-13
   7.49999983E-03  -8.77427579E-13
   7.55000021E-03  -9.20585114E-13
   7.60000013E-03  -9.65382505E-13
   7.65000004E-03  -1.01185694E-12
   7.69999996E-03  -1.06004658E-12
   7.74999987E-03  -1.10998938E-12
   7.79999979E-03  -1.16172154E-12
   7.84999970E-03  -1.21528005E-12
   7.89999962E-03  -1.27070034E-12
   7.95000046E-03  -1.32801680E-12
   8.00000038E-03  -1.38726476E-12
   8.05000030E-03  -1.44847719E-12
   8.10000021E-03  -1.51168748E-12
   8.15000013E-03  -1.57692739E-12
   8.20000004E-03  -1.64422610E-12
   8.24999996E-03  -1.71361341E-12
   8.29999987E-03  -1.78511795E-12
   8.34999979E-03  -1.85876553E-12
   8.39999970E-03  -1.93458053E-12
   8.44999962E-03  -2.01258671E-12
   8.50000046E-03  -2.09280510E-12
   8.55000038E-03  -2.17525672E-12
   8.60000029E-03  -2.25995915E-12
   8.65000021E-03  -2.34692626E-12
   8.70000012E-03  -2.43617279E-12
   8.75000004E-03  -2.52771025E-12
   8.79999995E-03  -2.62154643E-12
   8.84999987E-03  -2.71768632E-12
   8.89999978E-03  -2.81613253E-12
   8.94999970E-03  -2.91688505E-12
   8.99999961E-03  -3.01994020E-12
   9.05000046E-03  -3.12529191E-12
   9.10000037E-03  -3.23293107E-12
   9.15000029E-03  -3.34284488E-12
   9.20000020E-03  -3.45501817E-12
   9.25000012E-03  -3.56942904E-12
   9.30000003E-03  -3.68605146E-12
   9.34999995E-03  -3.80485834E-12
   9.39999986E-03  -3.92581887E-12
   9.44999978E-03  -4.04889533E-12
   9.49999969E-03  -4.17404609E-12
   9.54999961E-03  -4.30122648E-12
   9.60000046E-03  -4.43038314E-12
   9.65000037E-03  -4.56145928E-12
   9.70000029E-03  -4.69439548E-12
   9.75000020E-03  -4.82912581E-12
   9.80000012E-03  -4.96557699E-12
   9.85000003E-03  -5.10366836E-12
   9.89999995E-03  -5.24332053E-12
   9.94999986E-03  -5.38444766E-12
   9.99999978E-03  -5.52695216E-12
   1.00499997E-02  -5.67073298E-12
   1.00999996E-02  -5.81568257E-12
   1.01500005E-02  -5.96168861E-12
   1.02000004E-02  -6.10862836E-12
   1.02500003E-02  -6.25637389E-12
   1.03000002E-02  -6.40478686E-12
   1.03500001E-02  -6.55372805E-12
   1.04000000E-02  -6.70305434E-12
   1.04499999E-02  -6.85260529E-12
   1.04999999E-02  -7.00221391E-12
   1.05499998E-02  -7.15170935E-12
   1.05999997E-02  -7.30091074E-12
   1.06499996E-02  -7.44962599E-12
   1.07000005E-02  -7.59766208E-12
   1.07500004E-02  -7.74482301E-12
   1.08000003E-02  -7.89089454E-12
   1.08500002E-02  -8.03565114E-12
   1.09000001E-02  -8.17886904E-12
   1.09500000E-02  -8.32030798E-12
   1.09999999E-02  -8.45972077E-12
   1.10499999E-02  -8.59685934E-12
   1.10999998E-02  -8.73145393E-12
   1.11499997E-02  -8.86323480E-12
   1.11999996E-02  -8.99192006E-12
   1.12500004E-02  -9.11721133E-12
   1.13000004E-02  -9.23880677E-12
   1.13500003E-02  -9.35640888E-12
   1.14000002E-02  -9.46970540E-12
   1.14500001E-02  -9.57835981E-12
   1.15000000E-02  -9.68203556E-12
   1.15499999E-02  -9.78038657E-12
   1.15999999E-02  -9.87304509E-12
   1.16499998E-02  -9.95965376E-12
   1.16999997E-02  -1.00398414E-11
   1.17499996E-02  -1.01132176E-11
   1.18000004E-02  -1.01793947E-11
   1.18500004E-02  -1.02379693E-11
   1.19000003E-02  -1.02885356E-11
   1.19500002E-02  -1.03306669E-11
   1.20000001E-02  -1.03639311E-11
   1.20500000E-02  -1.03879067E-11
   1.20999999E-02  -1.04021305E-11
   1.21499998E-02  -1.04061360E-11
   1.21999998E-02  -1.03994599E-11
   1.22499997E-02  -1.03816287E-11
   1.22999996E-02  -1.03521705E-11
   1.23500004E-02  -1.03105927E-11
   1.24000004E-02  -1.02563930E-11
   1.24500003E-02  -1.01890779E-11
   1.25000002E-02  -1.01081261E-11
   1.25500001E-02  -1.00129887E-11
   1.26000000E-02  -9.90313560E-12
   1.26499999E-02  -9.77804122E-12
   1.26999998E-02  -9.63715305E-12
   1.27499998E-02  -9.47992292E-12
   1.27999997E-02  -9.30579658E-12
   1.28499996E-02  -9.11420071E-12
   1.29000004E-02  -8.90456719E-12
   1.29500004E-02  -8.67632528E-12
   1.30000003E-02  -8.42889213E-12
   1.30500002E-02  -8.16166492E-12
   1.31000001E-02  -7.87405904E-12
   1.31500000E-02  -7.56548470E-12
   1.31999999E-02  -7.23531174E-12
   1.32499998E-02  -6.88295601E-12
   1.32999998E-02  -6.50781729E-12
   1.33499997E-02  -6.10926587E-12
   1.33999996E-02  -5.68669851E-12
   1.34500004E-02  -5.23948549E-12
   1.35000004E-02  -4.76699583E-12
   1.35500003E-02  -4.26862582E-12
   1.36000002E-02  -3.74374923E-12
   1.36500001E-02  -3.19174309E-12
   1.37000000E-02  -2.61196446E-12
   1.37499999E-02  -2.00379101E-12
   1.37999998E-02  -1.36663760E-12
   1.38499998E-02  -6.99885191E-13
   1.38999997E-02  -2.89502881E-15
   1.39499996E-02   7.24974605E-13
   1.40000004E-02   1.48430357E-12
   1.40500003E-02   2.27567574E-12
   1.41000003E-02   3.09971688E-12
   1.41500002E-02   3.95705821E-12
   1.42000001E-02   4.84831489E-12
   1.42500000E-02   5.77404964E-12
   1.42999999E-02   6.73481540E-12
   1.43499998E-02   7.73120196E-12
   1.43999998E-02   8.76378657E-12
   1.44499997E-02   9.83315339E-12
   1.44999996E-02   1.09398541E-11
   1.45500004E-02   1.20843682E-11
   1.46000003E-02   1.32672536E-11
   1.46500003E-02   1.44890757E-11
   1.47000002E-02   1.57503437E-11
   1.47500001E-02   1.70515806E-11
   1.48000000E-02   1.83932088E-11
   1.48499999E-02   1.97757088E-11
   1.48999998E-02   2.11996115E-11
   1.49499997E-02   2.26653141E-11
   1.49999997E-02   2.41731930E-11
   1.50499996E-02   2.57237027E-11
   1.51000004E-02   2.73172387E-11
   1.51500003E-02   2.89541776E-11
   1.52000003E-02   3.06349182E-11
   1.52500002E-02   3.23597711E-11
   1.53000001E-02   3.41290121E-11
   1.53500000E-02   3.59429535E-11
   1.53999999E-02   3.78018970E-11
   1.54499998E-02   3.97061065E-11
   1.54999997E-02   4.16557865E-11
   1.55499997E-02   4.36511452E-11
   1.55999996E-02   4.56923908E-11
   1.56500004E-02   4.77796691E-11
   1.56999994E-02   4.99130910E-11
   1.57500003E-02   5.20927780E-11
   1.57999992E-02   5.43188203E-11
   1.58500001E-02   5.65913150E-11
   1.59000009E-02   5.89103280E-11
   1.59499999E-02   6.12758178E-11
   1.60000008E-02   6.36877148E-11
   1.60499997E-02   6.61459984E-11
   1.61000006E-02   6.86506060E-11
   1.61499996E-02   7.12014128E-11
   1.62000004E-02   7.37982453E-11
   1.62499994E-02   7.64408953E-11
   1.63000003E-02   7.91291963E-11
   1.63499992E-02   8.18628776E-11
   1.64000001E-02   8.46416201E-11
   1.64500009E-02   8.74651185E-11
   1.64999999E-02   9.03330119E-11
   1.65500008E-02   9.32448702E-11
   1.65999997E-02   9.62002492E-11
   1.66500006E-02   9.91986840E-11
   1.66999996E-02   1.02239703E-10
   1.67500004E-02   1.05322778E-10
   1.67999994E-02   1.08447321E-10
   1.68500002E-02   1.11612712E-10
   1.68999992E-02   1.14818273E-10
   1.69500001E-02   1.18063309E-10
   1.70000009E-02   1.21347071E-10
   1.70499999E-02   1.24668803E-10
   1.71000008E-02   1.28027686E-10
   1.71499997E-02   1.31422775E-10
   1.72000006E-02   1.34853184E-10
   1.72499996E-02   1.38318065E-10
   1.73000004E-02   1.41816378E-10
   1.73499994E-02   1.45347026E-10
   1.74000002E-02   1.48908955E-10
   1.74499992E-02   1.52501053E-10
   1.75000001E-02   1.56122171E-10
   1.75500009E-02   1.59771127E-10
   1.75999999E-02   1.63446590E-10
   1.76500008E-02   1.67147282E-10
   1.76999997E-02   1.70871872E-10
   1.77500006E-02   1.74618972E-10
   1.77999996E-02   1.78387180E-10
   1.78500004E-02   1.82175011E-10
   1.78999994E-02   1.85980953E-10
   1.79500002E-02   1.89803423E-10
   1.79999992E-02   1.93640853E-10
   1.80500001E-02   1.97491551E-10
   1.81000009E-02   2.01353878E-10
   1.81499999E-02   2.05226086E-10
   1.82000007E-02   2.09106357E-10
   1.82499997E-02   2.12992873E-10
   1.83000006E-02   2.16883775E-10
   1.83499996E-02   2.20777174E-10
   1.84000004E-02   2.24671157E-10
   1.84499994E-02   2.28563668E-10
   1.85000002E-02   2.32452613E-10
   1.85499992E-02   2.36336006E-10
   1.86000001E-02   2.40211656E-10
   1.86500009E-02   2.44077397E-10
   1.86999999E-02   2.47931065E-10
   1.87500007E-02   2.51770355E-10
   1.87999997E-02   2.55592991E-10
   1.88500006E-02   2.59396699E-10
   1.88999996E-02   2.63179090E-10
   1.89500004E-02   2.66937750E-10
   1.89999994E-02   2.70670264E-10
   1.90500002E-02   2.74374107E-10
   1.90999992E-02   2.78046697E-10
   1.91500001E-02   2.81685564E-10
   1.92000009E-02   2.85288071E-10
   1.92499999E-02   2.88851637E-10
   1.93000007E-02   2.92373542E-10
   1.93499997E-02   2.95851094E-10
   1.94000006E-02   2.99281600E-10
   1.94499996E-02   3.02662256E-10
   1.95000004E-02   3.05990261E-10
   1.95499994E-02   3.09262810E-10
   1.96000002E-02   3.12477044E-10
   1.96499992E-02   3.15630050E-10
   1.97000001E-02   3.18718940E-10
   1.97500009E-02   3.21740662E-10
   1.97999999E-02   3.24692273E-10
   1.98500007E-02   3.27570832E-10
   1.98999997E-02   3.30373229E-10
   1.99500006E-02   3.33096439E-10
   1.99999996E-02   3.35737355E-10
   2.00500004E-02   3.38292810E-10
   2.00999994E-02   3.40759698E-10
   2.01500002E-02   3.43134882E-10
   2.01999992E-02   3.45415113E-10
   2.02500001E-02   3.47597229E-10
   2.03000009E-02   3.49678037E-10
   2.03499999E-02   3.51654289E-10
   2.04000007E-02   3.53522683E-10
   2.04499997E-02   3.55280000E-10
   2.05000006E-02   3.56922852E-10
   2.05499995E-02   3.58447910E-10
   2.06000004E-02   3.59851871E-10
   2.06499994E-02   3.61131458E-10
   2.07000002E-02   3.62283203E-10
   2.07499992E-02   3.63303776E-10
   2.08000001E-02   3.64189845E-10
   2.08500009E-02   3.64937913E-10
   2.08999999E-02   3.65544595E-10
   2.09500007E-02   3.66006475E-10
   2.09999997E-02   3.66320113E-10
   2.10500006E-02   3.66482095E-10
   2.10999995E-02   3.66488895E-10
   2.11500004E-02   3.66337100E-10
   2.11999994E-02   3.66023267E-10
   2.12500002E-02   3.65543928E-10
   2.12999992E-02   3.64895530E-10
   2.13500001E-02   3.64074632E-10
   2.14000009E-02   3.63077762E-10
   2.14499999E-02   3.61901425E-10
   2.15000007E-02   3.60542041E-10
   2.15499997E-02   3.58996138E-10
   2.16000006E-02   3.57260277E-10
   2.16499995E-02   3.55330931E-10
   2.17000004E-02   3.53204604E-10
   2.17499994E-02   3.50877744E-10
   2.18000002E-02   3.48346851E-10
   2.18499992E-02   3.45608459E-10
   2.19000001E-02   3.42658957E-10
   2.19500009E-02   3.39494849E-10
   2.19999999E-02   3.36112693E-10
   2.20500007E-02   3.32509131E-10
   2.20999997E-02   3.28680527E-10
   2.21500006E-02   3.24623411E-10
   2.21999995E-02   3.20334231E-10
   2.22500004E-02   3.15809462E-10
   2.22999994E-02   3.11045634E-10
   2.23500002E-02   3.06039249E-10
   2.23999992E-02   3.00786840E-10
   2.24500000E-02   2.95285019E-10
   2.25000009E-02   2.89530289E-10
   2.25499999E-02   2.83519069E-10
   2.26000007E-02   2.77247891E-10
   2.26499997E-02   2.70713479E-10
   2.27000006E-02   2.63912087E-10
   2.27499995E-02   2.56840438E-10
   2.28000004E-02   2.49495147E-10
   2.28499994E-02   2.41872550E-10
   2.29000002E-02   2.33969122E-10
   2.29499992E-02   2.25781671E-10
   2.30000000E-02   2.17306895E-10
   2.30500009E-02   2.08540990E-10
   2.30999999E-02   1.99480391E-10
   2.31500007E-02   1.90122057E-10
   2.31999997E-02   1.80462478E-10
   2.32500006E-02   1.70498157E-10
   2.32999995E-02   1.60225860E-10
   2.33500004E-02   1.49641757E-10
   2.33999994E-02   1.38742656E-10
   2.34500002E-02   1.27525476E-10
   2.34999992E-02   1.15986477E-10
   2.35500000E-02   1.04122155E-10
   2.36000009E-02   9.19293877E-11
   2.36499999E-02   7.94047883E-11
   2.37000007E-02   6.65449085E-11
   2.37499997E-02   5.33460047E-11
   2.38000005E-02   3.98049510E-11
   2.38499995E-02   2.59182224E-11
   2.39000004E-02   1.16822177E-11
   2.39499994E-02  -2.90610765E-12
   2.40000002E-02  -1.78502421E-11
   2.40499992E-02  -3.31536396E-11
   2.41000000E-02  -4.88195005E-11
   2.41500009E-02  -6.48509649E-11
   2.41999999E-02  -8.12518317E-11
   2.42500007E-02  -9.80256293E-11
   2.42999997E-02  -1.15175355E-10
   2.43500005E-02  -1.32704264E-10
   2.43999995E-02  -1.50615853E-10
   2.44500004E-02  -1.68913647E-10
   2.44999994E-02  -1.87600518E-10
   2.45500002E-02  -2.06680062E-10
   2.45999992E-02  -2.26155789E-10
   2.46500000E-02  -2.46030807E-10
   2.47000009E-02  -2.66308919E-10
   2.47499999E-02  -2.86993429E-10
   2.48000007E-02  -3.08087333E-10
   2.48499997E-02  -3.29594046E-10
   2.49000005E-02  -3.51517093E-10
   2.49499995E-02  -3.73859471E-10
   2.50000004E-02  -3.96624955E-10
   2.50499994E-02  -4.19816848E-10
   2.51000002E-02  -4.43437731E-10
   2.51499992E-02  -4.67490990E-10
   2.52000000E-02  -4.91979790E-10
   2.52500009E-02  -5.16907184E-10
   2.52999999E-02  -5.42276613E-10
   2.53500007E-02  -5.68091740E-10
   2.53999997E-02  -5.94355343E-10
   2.54500005E-02  -6.21069973E-10
   2.54999995E-02  -6.48239740E-10
   2.55500004E-02  -6.75867362E-10
   2.55999994E-02  -7.03955727E-10
   2.56500002E-02  -7.32507832E-10
   2.56999992E-02  -7.61526620E-10
   2.57500000E-02  -7.91014920E-10
   2.58000009E-02  -8.20975232E-10
   2.58499999E-02  -8.51410498E-10
   2.59000007E-02  -8.82323770E-10
   2.59499997E-02  -9.13717491E-10
   2.60000005E-02  -9.45593714E-10
   2.60499995E-02  -9.77955272E-10
   2.61000004E-02  -1.01080577E-09
   2.61499994E-02  -1.04414777E-09
   2.62000002E-02  -1.07798193E-09
   2.62499992E-02  -1.11231013E-09
   2.63000000E-02  -1.14713583E-09
   2.63500009E-02  -1.18246102E-09
   2.63999999E-02  -1.21828758E-09
   2.64500007E-02  -1.25461719E-09
   2.64999997E-02  -1.29145217E-09
   2.65500005E-02  -1.32879374E-09
   2.65999995E-02  -1.36664358E-09
   2.66500004E-02  -1.40500411E-09
   2.66999993E-02  -1.44387535E-09
   2.67500002E-02  -1.48325918E-09
   2.67999992E-02  -1.52315660E-09
   2.68500000E-02  -1.56356816E-09
   2.69000009E-02  -1.60449543E-09
   2.69499999E-02  -1.64593850E-09
   2.70000007E-02  -1.68789760E-09
   2.70499997E-02  -1.73037329E-09
   2.71000005E-02  -1.77336612E-09
   2.71499995E-02  -1.81687487E-09
   2.72000004E-02  -1.86089877E-09
   2.72499993E-02  -1.90543781E-09
   2.73000002E-02  -1.95049177E-09
   2.73499992E-02  -1.99605910E-09
   2.74000000E-02  -2.04213912E-09
   2.74500009E-02  -2.08873052E-09
   2.74999999E-02  -2.13583018E-09
   2.75500007E-02  -2.18343588E-09
   2.75999997E-02  -2.23154584E-09
   2.76500005E-02  -2.28015828E-09
   2.76999995E-02  -2.32926989E-09
   2.77500004E-02  -2.37887710E-09
   2.77999993E-02  -2.42897569E-09
   2.78500002E-02  -2.47956189E-09
   2.78999992E-02  -2.53063126E-09
   2.79500000E-02  -2.58218025E-09
   2.80000009E-02  -2.63420330E-09
   2.80499998E-02  -2.68669464E-09
   2.81000007E-02  -2.73964895E-09
   2.81499997E-02  -2.79306067E-09
   2.82000005E-02  -2.84692292E-09
   2.82499995E-02  -2.90122859E-09
   2.83000004E-02  -2.95596991E-09
   2.83499993E-02  -3.01113934E-09
   2.84000002E-02  -3.06672843E-09
   2.84499992E-02  -3.12272785E-09
   2.85000000E-02  -3.17912829E-09
   2.85500009E-02  -3.23591953E-09
   2.85999998E-02  -3.29309158E-09
   2.86500007E-02  -3.35063399E-09
   2.86999997E-02  -3.40853501E-09
   2.87500005E-02  -3.46678242E-09
   2.87999995E-02  -3.52536444E-09
   2.88500004E-02  -3.58426666E-09
   2.88999993E-02  -3.64347530E-09
   2.89500002E-02  -3.70297681E-09
   2.89999992E-02  -3.76275455E-09
   2.90500000E-02  -3.82279319E-09
   2.91000009E-02  -3.88307608E-09
   2.91499998E-02  -3.94358635E-09
   2.92000007E-02  -4.00430666E-09
   2.92499997E-02  -4.06521838E-09
   2.93000005E-02  -4.12630152E-09
   2.93499995E-02  -4.18753698E-09
   2.94000003E-02  -4.24890434E-09
   2.94499993E-02  -4.31038050E-09
   2.95000002E-02  -4.37194370E-09
   2.95499992E-02  -4.43357173E-09
   2.96000000E-02  -4.49524018E-09
   2.96500009E-02  -4.55692550E-09
   2.96999998E-02  -4.61860150E-09
   2.97500007E-02  -4.68024108E-09
   2.97999997E-02  -4.74181761E-09
   2.98500005E-02  -4.80330264E-09
   2.98999995E-02  -4.86466689E-09
   2.99500003E-02  -4.92588104E-09
   2.99999993E-02  -4.98691444E-09
   3.00500002E-02  -5.04773645E-09
   3.00999992E-02  -5.10831288E-09
   3.01500000E-02  -5.16860998E-09
   3.02000009E-02  -5.22859311E-09
   3.02499998E-02  -5.28822719E-09
   3.03000007E-02  -5.34747580E-09
   3.03499997E-02  -5.40630030E-09
   3.04000005E-02  -5.46466294E-09
   3.04499995E-02  -5.52252466E-09
   3.05000003E-02  -5.57984370E-09
   3.05499993E-02  -5.63657920E-09
   3.06000002E-02  -5.69268854E-09
   3.06499992E-02  -5.74812775E-09
   3.07000000E-02  -5.80285286E-09
   3.07500008E-02  -5.85681725E-09
   3.07999998E-02  -5.90997429E-09
   3.08500007E-02  -5.96227512E-09
   3.08999997E-02  -6.01367134E-09
   3.09500005E-02  -6.06411277E-09
   3.09999995E-02  -6.11354745E-09
   3.10500003E-02  -6.16192253E-09
   3.10999993E-02  -6.20918517E-09
   3.11500002E-02  -6.25528163E-09
   3.11999992E-02  -6.30015506E-09
   3.12500000E-02  -6.34374908E-09
   3.13000008E-02  -6.38600595E-09
   3.13500017E-02  -6.42686748E-09
   3.13999988E-02  -6.46627241E-09
   3.14499997E-02  -6.50416032E-09
   3.15000005E-02  -6.54046861E-09
   3.15500014E-02  -6.57513377E-09
   3.15999985E-02  -6.60809096E-09
   3.16499993E-02  -6.63927580E-09
   3.17000002E-02  -6.66862121E-09
   3.17500010E-02  -6.69605926E-09
   3.18000019E-02  -6.72152201E-09
   3.18499990E-02  -6.74493972E-09
   3.18999998E-02  -6.76624046E-09
   3.19500007E-02  -6.78535317E-09
   3.20000015E-02  -6.80220458E-09
   3.20499986E-02  -6.81672097E-09
   3.20999995E-02  -6.82882773E-09
   3.21500003E-02  -6.83844847E-09
   3.22000012E-02  -6.84550727E-09
   3.22499983E-02  -6.84992552E-09
   3.22999991E-02  -6.85162460E-09
   3.23500000E-02  -6.85052592E-09
   3.24000008E-02  -6.84654866E-09
   3.24500017E-02  -6.83961199E-09
   3.24999988E-02  -6.82963419E-09
   3.25499997E-02  -6.81653312E-09
   3.26000005E-02  -6.80022350E-09
   3.26500013E-02  -6.78062140E-09
   3.26999985E-02  -6.75764067E-09
   3.27499993E-02  -6.73119560E-09
   3.28000002E-02  -6.70120137E-09
   3.28500010E-02  -6.66757005E-09
   3.29000019E-02  -6.63021282E-09
   3.29499990E-02  -6.58904398E-09
   3.29999998E-02  -6.54397425E-09
   3.30500007E-02  -6.49491305E-09
   3.31000015E-02  -6.44177112E-09
   3.31499986E-02  -6.38445874E-09
   3.31999995E-02  -6.32288533E-09
   3.32500003E-02  -6.25695851E-09
   3.33000012E-02  -6.18658857E-09
   3.33499983E-02  -6.11168405E-09
   3.33999991E-02  -6.03215300E-09
   3.34500000E-02  -5.94790528E-09
   3.35000008E-02  -5.85884852E-09
   3.35500017E-02  -5.76489034E-09
   3.35999988E-02  -5.66593883E-09
   3.36499996E-02  -5.56190161E-09
   3.37000005E-02  -5.45268808E-09
   3.37500013E-02  -5.33820765E-09
   3.37999985E-02  -5.21836885E-09
   3.38499993E-02  -5.09308062E-09
   3.39000002E-02  -4.96225194E-09
   3.39500010E-02  -4.82579221E-09
   3.40000018E-02  -4.68361172E-09
   3.40499990E-02  -4.53562299E-09
   3.40999998E-02  -4.38173853E-09
   3.41500007E-02  -4.22186996E-09
   3.42000015E-02  -4.05592893E-09
   3.42499986E-02  -3.88382926E-09
   3.42999995E-02  -3.70548725E-09
   3.43500003E-02  -3.52081786E-09
   3.44000012E-02  -3.32973893E-09
   3.44499983E-02  -3.13216697E-09
   3.44999991E-02  -2.92802227E-09
   3.45500000E-02  -2.71722489E-09
   3.46000008E-02  -2.49969467E-09
   3.46500017E-02  -2.27535613E-09
   3.46999988E-02  -2.04413220E-09
   3.47499996E-02  -1.80594828E-09
   3.48000005E-02  -1.56073465E-09
   3.48500013E-02  -1.30842115E-09
   3.48999985E-02  -1.04893938E-09
   3.49499993E-02  -7.82221843E-10
   3.50000001E-02  -5.08202591E-10
   3.50500010E-02  -2.26824101E-10
   3.51000018E-02   6.19735999E-11
   3.51499990E-02   3.58251095E-10
   3.51999998E-02   6.62062849E-10
   3.52500007E-02   9.73465863E-10
   3.53000015E-02   1.29250877E-09
   3.53499986E-02   1.61923852E-09
   3.53999995E-02   1.95370231E-09
   3.54500003E-02   2.29594121E-09
   3.55000012E-02   2.64599720E-09
   3.55499983E-02   3.00390535E-09
   3.55999991E-02   3.36969608E-09
   3.56500000E-02   3.74340026E-09
   3.57000008E-02   4.12504741E-09
   3.57500017E-02   4.51465709E-09
   3.57999988E-02   4.91225061E-09
   3.58499996E-02   5.31784661E-09
   3.59000005E-02   5.73145753E-09
   3.59500013E-02   6.15309403E-09
   3.59999985E-02   6.58276145E-09
   3.60499993E-02   7.02045622E-09
   3.61000001E-02   7.46617168E-09
   3.61500010E-02   7.91990740E-09
   3.62000018E-02   8.38165626E-09
   3.62499990E-02   8.85139606E-09
   3.62999998E-02   9.32910638E-09
   3.63500006E-02   9.81475967E-09
   3.64000015E-02   1.03083266E-08
   3.64499986E-02   1.08097744E-08
   3.64999995E-02   1.13190648E-08
   3.65500003E-02   1.18361498E-08
   3.66000012E-02   1.23609816E-08
   3.66499983E-02   1.28935129E-08
   3.66999991E-02   1.34336817E-08
   3.67500000E-02   1.39814222E-08
   3.68000008E-02   1.45366661E-08
   3.68500017E-02   1.50993298E-08
   3.68999988E-02   1.56693396E-08
   3.69499996E-02   1.62466112E-08
   3.70000005E-02   1.68310468E-08
   3.70500013E-02   1.74225487E-08
   3.70999984E-02   1.80210140E-08
   3.71499993E-02   1.86263343E-08
   3.72000001E-02   1.92383958E-08
   3.72500010E-02   1.98570742E-08
   3.73000018E-02   2.04822435E-08
   3.73499990E-02   2.11137667E-08
   3.73999998E-02   2.17515055E-08
   3.74500006E-02   2.23953052E-08
   3.75000015E-02   2.30450148E-08
   3.75499986E-02   2.37004745E-08
   3.75999995E-02   2.43615190E-08
   3.76500003E-02   2.50279744E-08
   3.77000012E-02   2.56996628E-08
   3.77499983E-02   2.63763944E-08
   3.77999991E-02   2.70579754E-08
   3.78500000E-02   2.77442158E-08
   3.79000008E-02   2.84349007E-08
   3.79500017E-02   2.91298150E-08
   3.79999988E-02   2.98287404E-08
   3.80499996E-02   3.05314494E-08
   3.81000005E-02   3.12377040E-08
   3.81500013E-02   3.19472555E-08
   3.81999984E-02   3.26598588E-08
   3.82499993E-02   3.33752581E-08
   3.83000001E-02   3.40931976E-08
   3.83500010E-02   3.48134108E-08
   3.84000018E-02   3.55356065E-08
   3.84499989E-02   3.62594967E-08
   3.84999998E-02   3.69847974E-08
   3.85500006E-02   3.77112102E-08
   3.86000015E-02   3.84384329E-08
   3.86499986E-02   3.91661459E-08
   3.86999995E-02   3.98940223E-08
   3.87500003E-02   4.06217531E-08
   3.88000011E-02   4.13489900E-08
   3.88499983E-02   4.20753885E-08
   3.88999991E-02   4.28005968E-08
   3.89500000E-02   4.35242669E-08
   3.90000008E-02   4.42460362E-08
   3.90500017E-02   4.49655317E-08
   3.90999988E-02   4.56823805E-08
   3.91499996E-02   4.63962024E-08
   3.92000005E-02   4.71065995E-08
   3.92500013E-02   4.78131703E-08
   3.92999984E-02   4.85155240E-08
   3.93499993E-02   4.92132521E-08
   3.94000001E-02   4.99059283E-08
   3.94500010E-02   5.05931332E-08
   3.95000018E-02   5.12744336E-08
   3.95499989E-02   5.19493923E-08
   3.95999998E-02   5.26175725E-08
   3.96500006E-02   5.32785265E-08
   3.97000015E-02   5.39317995E-08
   3.97499986E-02   5.45769261E-08
   3.97999994E-02   5.52134445E-08
   3.98500003E-02   5.58408964E-08
   3.99000011E-02   5.64587950E-08
   3.99499983E-02   5.70666572E-08
   3.99999991E-02   5.76639962E-08
   4.00500000E-02   5.82503219E-08
   4.01000008E-02   5.88251368E-08
   4.01500016E-02   5.93879435E-08
   4.01999988E-02   5.99382233E-08
   4.02499996E-02   6.04754788E-08
   4.03000005E-02   6.09991844E-08
   4.03500013E-02   6.15088211E-08
   4.03999984E-02   6.20038776E-08
   4.04499993E-02   6.24838279E-08
   4.05000001E-02   6.29481320E-08
   4.05500010E-02   6.33962571E-08
   4.06000018E-02   6.38276632E-08
   4.06499989E-02   6.42418243E-08
   4.06999998E-02   6.46382006E-08
   4.07500006E-02   6.50162306E-08
   4.08000015E-02   6.53753673E-08
   4.08499986E-02   6.57150849E-08
   4.08999994E-02   6.60348221E-08
   4.09500003E-02   6.63340174E-08
   4.10000011E-02   6.66121167E-08
   4.10499983E-02   6.68685800E-08
   4.10999991E-02   6.71028459E-08
   4.11499999E-02   6.73143603E-08
   4.12000008E-02   6.75025618E-08
   4.12500016E-02   6.76668961E-08
   4.12999988E-02   6.78068020E-08
   4.13499996E-02   6.79217393E-08
   4.14000005E-02   6.80111540E-08
   4.14500013E-02   6.80744847E-08
   4.14999984E-02   6.81111842E-08
   4.15499993E-02   6.81206984E-08
   4.16000001E-02   6.81024872E-08
   4.16500010E-02   6.80559964E-08
   4.17000018E-02   6.79806931E-08
   4.17499989E-02   6.78760301E-08
   4.17999998E-02   6.77414675E-08
   4.18500006E-02   6.75764795E-08
   4.19000015E-02   6.73805332E-08
   4.19499986E-02   6.71531097E-08
   4.19999994E-02   6.68937048E-08
   4.20500003E-02   6.66017854E-08
   4.21000011E-02   6.62768258E-08
   4.21499982E-02   6.59183499E-08
   4.21999991E-02   6.55258532E-08
   4.22499999E-02   6.50988383E-08
   4.23000008E-02   6.46368150E-08
   4.23500016E-02   6.41393356E-08
   4.23999988E-02   6.36059170E-08
   4.24499996E-02   6.30360901E-08
   4.25000004E-02   6.24294074E-08
   4.25500013E-02   6.17854141E-08
   4.25999984E-02   6.11036697E-08
   4.26499993E-02   6.03837549E-08
   4.27000001E-02   5.96252647E-08
   4.27500010E-02   5.88277729E-08
   4.28000018E-02   5.79908850E-08