   0.00000000       0.00000000    
   4.99999987E-05   0.00000000    
   9.99999975E-05   0.00000000    
   1.50000007E-04   0.00000000    
   1.99999995E-04  -9.31326187E-24
   2.50000012E-04  -1.28819219E-22
   3.00000014E-04  -8.95427052E-22
   3.49999988E-04  -4.27482861E-21
   3.99999990E-04  -1.59561912E-20
   4.49999992E-04  -4.99402572E-20
   5.00000024E-04  -1.36819421E-19
   5.49999997E-04  -3.37624856E-19
   6.00000028E-04  -7.65657607E-19
   6.50000002E-04  -1.61933281E-18
   6.99999975E-04  -3.22973456E-18
   7.50000007E-04  -6.12732136E-18
   7.99999980E-04  -1.11330239E-17
   8.50000011E-04  -1.94798271E-17
   8.99999985E-04  -3.29718130E-17
   9.50000016E-04  -5.41887244E-17
   1.00000005E-03  -8.67449221E-17
   1.04999996E-03  -1.35612900E-16
   1.09999999E-03  -2.07522529E-16
   1.15000003E-03  -3.11448403E-16
   1.20000006E-03  -4.59198637E-16
   1.24999997E-03  -6.66120156E-16
   1.30000000E-03  -9.51936390E-16
   1.35000004E-03  -1.34173481E-15
   1.39999995E-03  -1.86712277E-15
   1.44999998E-03  -2.56757201E-15
   1.50000001E-03  -3.49197316E-15
   1.55000004E-03  -4.70042257E-15
   1.59999996E-03  -6.26626673E-15
   1.64999999E-03  -8.27842484E-15
   1.70000002E-03  -1.08440326E-14
   1.75000005E-03  -1.40914036E-14
   1.79999997E-03  -1.81733833E-14
   1.85000000E-03  -2.32710833E-14
   1.90000003E-03  -2.95980485E-14
   1.94999995E-03  -3.74048936E-14
   2.00000009E-03  -4.69844432E-14
   2.05000001E-03  -5.86773943E-14
   2.09999993E-03  -7.28785860E-14
   2.15000007E-03  -9.00438239E-14
   2.19999999E-03  -1.10697435E-13
   2.24999990E-03  -1.35440433E-13
   2.30000005E-03  -1.64959490E-13
   2.34999997E-03  -2.00036643E-13
   2.40000011E-03  -2.41559837E-13
   2.45000003E-03  -2.90534415E-13
   2.49999994E-03  -3.48095305E-13
   2.55000009E-03  -4.15520401E-13
   2.60000001E-03  -4.94244890E-13
   2.64999992E-03  -5.85876671E-13
   2.70000007E-03  -6.92212563E-13
   2.74999999E-03  -8.15256012E-13
   2.79999990E-03  -9.57236243E-13
   2.85000005E-03  -1.12062779E-12
   2.89999996E-03  -1.30817210E-12
   2.95000011E-03  -1.52290040E-12
   3.00000003E-03  -1.76815734E-12
   3.04999994E-03  -2.04762726E-12
   3.10000009E-03  -2.36536073E-12
   3.15000000E-03  -2.72580287E-12
   3.19999992E-03  -3.13382415E-12
   3.25000007E-03  -3.59475145E-12
   3.29999998E-03  -4.11440240E-12
   3.34999990E-03  -4.69912000E-12
   3.40000005E-03  -5.35580955E-12
   3.44999996E-03  -6.09197762E-12
   3.50000011E-03  -6.91577264E-12
   3.55000002E-03  -7.83602523E-12
   3.59999994E-03  -8.86229718E-12
   3.65000009E-03  -1.00049248E-11
   3.70000000E-03  -1.12750660E-11
   3.74999992E-03  -1.26847526E-11
   3.80000006E-03  -1.42469413E-11
   3.84999998E-03  -1.59755698E-11
   3.89999989E-03  -1.78856114E-11
   3.94999981E-03  -1.99931374E-11
   4.00000019E-03  -2.23153683E-11
   4.05000011E-03  -2.48707461E-11
   4.10000002E-03  -2.76789997E-11
   4.14999994E-03  -3.07612026E-11
   4.19999985E-03  -3.41398437E-11
   4.25000023E-03  -3.78389126E-11
   4.30000015E-03  -4.18839581E-11
   4.35000006E-03  -4.63021600E-11
   4.39999998E-03  -5.11224257E-11
   4.44999989E-03  -5.63754494E-11
   4.49999981E-03  -6.20938023E-11
   4.55000019E-03  -6.83120158E-11
   4.60000010E-03  -7.50666820E-11
   4.65000002E-03  -8.23965132E-11
   4.69999993E-03  -9.03424349E-11
   4.74999985E-03  -9.89476973E-11
   4.80000023E-03  -1.08257951E-10
   4.85000014E-03  -1.18321353E-10
   4.90000006E-03  -1.29188674E-10
   4.94999997E-03  -1.40913350E-10
   4.99999989E-03  -1.53551588E-10
   5.04999980E-03  -1.67162548E-10
   5.10000018E-03  -1.81808332E-10
   5.15000010E-03  -1.97554167E-10
   5.20000001E-03  -2.14468457E-10
   5.24999993E-03  -2.32622921E-10
   5.29999984E-03  -2.52092736E-10
   5.35000023E-03  -2.72956491E-10
   5.40000014E-03  -2.95296482E-10
   5.45000006E-03  -3.19198695E-10
   5.49999997E-03  -3.44753004E-10
   5.54999989E-03  -3.72053111E-10
   5.59999980E-03  -4.01196909E-10
   5.65000018E-03  -4.32286346E-10
   5.70000010E-03  -4.65427641E-10
   5.75000001E-03  -5.00731456E-10
   5.79999993E-03  -5.38312783E-10
   5.84999984E-03  -5.78291359E-10
   5.90000022E-03  -6.20791418E-10
   5.95000014E-03  -6.65942190E-10
   6.00000005E-03  -7.13877624E-10
   6.04999997E-03  -7.64736607E-10
   6.09999988E-03  -8.18663193E-10
   6.14999980E-03  -8.75806538E-10
   6.20000018E-03  -9.36321132E-10
   6.25000009E-03  -1.00036679E-09
   6.30000001E-03  -1.06810849E-09
   6.34999992E-03  -1.13971710E-09
   6.39999984E-03  -1.21536892E-09
   6.45000022E-03  -1.29524569E-09
   6.50000013E-03  -1.37953504E-09
   6.55000005E-03  -1.46843060E-09
   6.59999996E-03  -1.56213142E-09
   6.64999988E-03  -1.66084269E-09
   6.69999979E-03  -1.76477544E-09
   6.75000018E-03  -1.87414684E-09
   6.80000009E-03  -1.98917971E-09
   6.85000001E-03  -2.11010320E-09
   6.89999992E-03  -2.23715224E-09
   6.94999984E-03  -2.37056841E-09
   7.00000022E-03  -2.51059906E-09
   7.05000013E-03  -2.65749756E-09
   7.10000005E-03  -2.81152301E-09
   7.14999996E-03  -2.97294100E-09
   7.19999988E-03  -3.14202331E-09
   7.24999979E-03  -3.31904726E-09
   7.30000017E-03  -3.50429619E-09
   7.35000009E-03  -3.69806008E-09
   7.40000000E-03  -3.90063359E-09
   7.44999992E-03  -4.11231760E-09
   7.49999983E-03  -4.33341896E-09
   7.55000021E-03  -4.56424987E-09
   7.60000013E-03  -4.80512785E-09
   7.65000004E-03  -5.05637532E-09
   7.69999996E-03  -5.31832089E-09
   7.74999987E-03  -5.59129720E-09
   7.79999979E-03  -5.87564308E-09
   7.84999970E-03  -6.17170048E-09
   7.89999962E-03  -6.47981713E-09
   7.95000046E-03  -6.80034429E-09
   8.00000038E-03  -7.13363724E-09
   8.05000030E-03  -7.48005569E-09
   8.10000021E-03  -7.83996335E-09
   8.15000013E-03  -8.21372570E-09
   8.20000004E-03  -8.60171223E-09
   8.24999996E-03  -9.00429598E-09
   8.29999987E-03  -9.42185086E-09
   8.34999979E-03  -9.85475346E-09
   8.39999970E-03  -1.03033830E-08
   8.44999962E-03  -1.07681188E-08
   8.50000046E-03  -1.12493419E-08
   8.55000038E-03  -1.17474341E-08
   8.60000029E-03  -1.22627783E-08
   8.65000021E-03  -1.27957547E-08
   8.70000012E-03  -1.33467450E-08
   8.75000004E-03  -1.39161287E-08
   8.79999995E-03  -1.45042831E-08
   8.84999987E-03  -1.51115849E-08
   8.89999978E-03  -1.57384079E-08
   8.94999970E-03  -1.63851226E-08
   8.99999961E-03  -1.70520931E-08
   9.05000046E-03  -1.77396835E-08
   9.10000037E-03  -1.84482492E-08
   9.15000029E-03  -1.91781417E-08
   9.20000020E-03  -1.99297077E-08
   9.25000012E-03  -2.07032826E-08
   9.30000003E-03  -2.14991989E-08
   9.34999995E-03  -2.23177761E-08
   9.39999986E-03  -2.31593287E-08
   9.44999978E-03  -2.40241604E-08
   9.49999969E-03  -2.49125627E-08
   9.54999961E-03  -2.58248196E-08
   9.60000046E-03  -2.67611977E-08
   9.65000037E-03  -2.77219527E-08
   9.70000029E-03  -2.87073263E-08
   9.75000020E-03  -2.97175458E-08
   9.80000012E-03  -3.07528261E-08
   9.85000003E-03  -3.18133608E-08
   9.89999995E-03  -3.28993259E-08
   9.94999986E-03  -3.40108848E-08
   9.99999978E-03  -3.51481759E-08
   1.00499997E-02  -3.63113202E-08
   1.00999996E-02  -3.75004170E-08
   1.01500005E-02  -3.87155410E-08
   1.02000004E-02  -3.99567419E-08
   1.02500003E-02  -4.12240553E-08
   1.03000002E-02  -4.25174811E-08
   1.03500001E-02  -4.38369980E-08
   1.04000000E-02  -4.51825528E-08
   1.04499999E-02  -4.65540673E-08
   1.04999999E-02  -4.79514384E-08
   1.05499998E-02  -4.93745134E-08
   1.05999997E-02  -5.08231288E-08
   1.06499996E-02  -5.22970787E-08
   1.07000005E-02  -5.37961284E-08
   1.07500004E-02  -5.53199975E-08
   1.08000003E-02  -5.68683767E-08
   1.08500002E-02  -5.84409143E-08
   1.09000001E-02  -6.00372232E-08
   1.09500000E-02  -6.16568698E-08
   1.09999999E-02  -6.32993888E-08
   1.10499999E-02  -6.49642686E-08
   1.10999998E-02  -6.66509550E-08
   1.11499997E-02  -6.83588368E-08
   1.11999996E-02  -7.00872818E-08
   1.12500004E-02  -7.18355793E-08
   1.13000004E-02  -7.36029904E-08
   1.13500003E-02  -7.53887264E-08
   1.14000002E-02  -7.71919275E-08
   1.14500001E-02  -7.90117127E-08
   1.15000000E-02  -8.08471157E-08
   1.15499999E-02  -8.26971416E-08
   1.15999999E-02  -8.45607246E-08
   1.16499998E-02  -8.64367493E-08
   1.16999997E-02  -8.83240432E-08
   1.17499996E-02  -9.02213557E-08
   1.18000004E-02  -9.21273937E-08
   1.18500004E-02  -9.40408071E-08
   1.19000003E-02  -9.59601749E-08
   1.19500002E-02  -9.78840120E-08
   1.20000001E-02  -9.98107552E-08
   1.20500000E-02  -1.01738799E-07
   1.20999999E-02  -1.03666451E-07
   1.21499998E-02  -1.05591972E-07
   1.21999998E-02  -1.07513536E-07
   1.22499997E-02  -1.09429259E-07
   1.22999996E-02  -1.11337179E-07
   1.23500004E-02  -1.13235245E-07
   1.24000004E-02  -1.15121367E-07
   1.24500003E-02  -1.16993377E-07
   1.25000002E-02  -1.18849009E-07
   1.25500001E-02  -1.20685939E-07
   1.26000000E-02  -1.22501746E-07
   1.26499999E-02  -1.24293990E-07
   1.26999998E-02  -1.26060073E-07
   1.27499998E-02  -1.27797392E-07
   1.27999997E-02  -1.29503206E-07
   1.28499996E-02  -1.31174744E-07
   1.29000004E-02  -1.32809134E-07
   1.29500004E-02  -1.34403436E-07
   1.30000003E-02  -1.35954608E-07
   1.30500002E-02  -1.37459537E-07
   1.31000001E-02  -1.38915070E-07
   1.31500000E-02  -1.40317908E-07
   1.31999999E-02  -1.41664685E-07
   1.32499998E-02  -1.42952004E-07
   1.32999998E-02  -1.44176354E-07
   1.33499997E-02  -1.45334113E-07
   1.33999996E-02  -1.46421627E-07
   1.34500004E-02  -1.47435159E-07
   1.35000004E-02  -1.48370859E-07
   1.35500003E-02  -1.49224846E-07
   1.36000002E-02  -1.49993099E-07
   1.36500001E-02  -1.50671568E-07
   1.37000000E-02  -1.51256103E-07
   1.37499999E-02  -1.51742498E-07
   1.37999998E-02  -1.52126447E-07
   1.38499998E-02  -1.52403572E-07
   1.38999997E-02  -1.52569442E-07
   1.39499996E-02  -1.52619521E-07
   1.40000004E-02  -1.52549219E-07
   1.40500003E-02  -1.52353891E-07
   1.41000003E-02  -1.52028790E-07
   1.41500002E-02  -1.51569125E-07
   1.42000001E-02  -1.50970038E-07
   1.42500000E-02  -1.50226583E-07
   1.42999999E-02  -1.49333786E-07
   1.43499998E-02  -1.48286560E-07
   1.43999998E-02  -1.47079817E-07
   1.44499997E-02  -1.45708370E-07
   1.44999996E-02  -1.44166989E-07
   1.45500004E-02  -1.42450418E-07
   1.46000003E-02  -1.40553283E-07
   1.46500003E-02  -1.38470227E-07
   1.47000002E-02  -1.36195823E-07
   1.47500001E-02  -1.33724612E-07
   1.48000000E-02  -1.31051081E-07
   1.48499999E-02  -1.28169674E-07
   1.48999998E-02  -1.25074806E-07
   1.49499997E-02  -1.21760877E-07
   1.49999997E-02  -1.18222239E-07
   1.50499996E-02  -1.14453215E-07
   1.51000004E-02  -1.10448113E-07
   1.51500003E-02  -1.06201249E-07
   1.52000003E-02  -1.01706902E-07
   1.52500002E-02  -9.69593259E-08
   1.53000001E-02  -9.19527920E-08
   1.53500000E-02  -8.66815597E-08
   1.53999999E-02  -8.11398877E-08
   1.54499998E-02  -7.53220490E-08
   1.54999997E-02  -6.92223239E-08
   1.55499997E-02  -6.28349923E-08
   1.55999996E-02  -5.61543807E-08
   1.56500004E-02  -4.91748189E-08
   1.56999994E-02  -4.18906758E-08
   1.57500003E-02  -3.42963524E-08
   1.57999992E-02  -2.63862798E-08
   1.58500001E-02  -1.81549424E-08
   1.59000009E-02  -9.59687352E-09
   1.59499999E-02  -7.06658121E-10
   1.60000008E-02   8.52106030E-09
   1.60499997E-02   1.80915674E-08
   1.61000006E-02   2.80100743E-08
   1.61499996E-02   3.82817262E-08
   1.62000004E-02   4.89115735E-08
   1.62499994E-02   5.99045791E-08
   1.63000003E-02   7.12656174E-08
   1.63499992E-02   8.29994633E-08
   1.64000001E-02   9.51107708E-08
   1.64500009E-02   1.07604080E-07
   1.64999999E-02   1.20483833E-07
   1.65500008E-02   1.33754327E-07
   1.65999997E-02   1.47419698E-07
   1.66500006E-02   1.61483996E-07
   1.66999996E-02   1.75951072E-07
   1.67500004E-02   1.90824665E-07
   1.67999994E-02   2.06108339E-07
   1.68500002E-02   2.21805479E-07
   1.68999992E-02   2.37919295E-07
   1.69500001E-02   2.54452829E-07
   1.70000009E-02   2.71408879E-07
   1.70499999E-02   2.88790091E-07
   1.71000008E-02   3.06598963E-07
   1.71499997E-02   3.24837657E-07
   1.72000006E-02   3.43508191E-07
   1.72499996E-02   3.62612354E-07
   1.73000004E-02   3.82151683E-07
   1.73499994E-02   4.02127455E-07
   1.74000002E-02   4.22540722E-07
   1.74499992E-02   4.43392281E-07
   1.75000001E-02   4.64682671E-07
   1.75500009E-02   4.86412148E-07
   1.75999999E-02   5.08580627E-07
   1.76500008E-02   5.31187823E-07
   1.76999997E-02   5.54233111E-07
   1.77500006E-02   5.77715639E-07
   1.77999996E-02   6.01634099E-07
   1.78500004E-02   6.25986900E-07
   1.78999994E-02   6.50772222E-07
   1.79500002E-02   6.75987792E-07
   1.79999992E-02   7.01631109E-07
   1.80500001E-02   7.27699216E-07
   1.81000009E-02   7.54188875E-07
   1.81499999E-02   7.81096333E-07
   1.82000007E-02   8.08417724E-07
   1.82499997E-02   8.36148672E-07
   1.83000006E-02   8.64284289E-07
   1.83499996E-02   8.92819514E-07
   1.84000004E-02   9.21748665E-07
   1.84499994E-02   9.51065886E-07
   1.85000002E-02   9.80764639E-07
   1.85499992E-02   1.01083810E-06
   1.86000001E-02   1.04127912E-06
   1.86500009E-02   1.07207984E-06
   1.86999999E-02   1.10323231E-06
   1.87500007E-02   1.13472788E-06
   1.87999997E-02   1.16655758E-06
   1.88500006E-02   1.19871186E-06
   1.88999996E-02   1.23118070E-06
   1.89500004E-02   1.26395366E-06
   1.89999994E-02   1.29701994E-06
   1.90500002E-02   1.33036804E-06
   1.90999992E-02   1.36398603E-06
   1.91500001E-02   1.39786152E-06
   1.92000009E-02   1.43198167E-06
   1.92499999E-02   1.46633306E-06
   1.93000007E-02   1.50090170E-06
   1.93499997E-02   1.53567339E-06
   1.94000006E-02   1.57063289E-06
   1.94499996E-02   1.60576496E-06
   1.95000004E-02   1.64105336E-06
   1.95499994E-02   1.67648193E-06
   1.96000002E-02   1.71203351E-06
   1.96499992E-02   1.74769048E-06
   1.97000001E-02   1.78343453E-06
   1.97500009E-02   1.81924713E-06
   1.97999999E-02   1.85510896E-06
   1.98500007E-02   1.89100035E-06
   1.98999997E-02   1.92690118E-06
   1.99500006E-02   1.96279075E-06
   1.99999996E-02   1.99864712E-06
   2.00500004E-02   2.03444847E-06
   2.00999994E-02   2.07017229E-06
   2.01500002E-02   2.10579606E-06
   2.01999992E-02   2.14129614E-06
   2.02500001E-02   2.17664774E-06
   2.03000009E-02   2.21182654E-06
   2.03499999E-02   2.24680753E-06
   2.04000007E-02   2.28156478E-06
   2.04499997E-02   2.31607191E-06
   2.05000006E-02   2.35030211E-06
   2.05499995E-02   2.38422831E-06
   2.06000004E-02   2.41782254E-06
   2.06499994E-02   2.45105593E-06
   2.07000002E-02   2.48389983E-06
   2.07499992E-02   2.51632491E-06
   2.08000001E-02   2.54830115E-06
   2.08500009E-02   2.57979809E-06
   2.08999999E-02   2.61078435E-06
   2.09500007E-02   2.64122878E-06
   2.09999997E-02   2.67109954E-06
   2.10500006E-02   2.70036412E-06
   2.10999995E-02   2.72898933E-06
   2.11500004E-02   2.75694219E-06
   2.11999994E-02   2.78418861E-06
   2.12500002E-02   2.81069447E-06
   2.12999992E-02   2.83642498E-06
   2.13500001E-02   2.86134491E-06
   2.14000009E-02   2.88541901E-06
   2.14499999E-02   2.90861112E-06
   2.15000007E-02   2.93088488E-06
   2.15499997E-02   2.95220366E-06
   2.16000006E-02   2.97253018E-06
   2.16499995E-02   2.99182693E-06
   2.17000004E-02   3.01005662E-06
   2.17499994E-02   3.02718036E-06
   2.18000002E-02   3.04316018E-06
   2.18499992E-02   3.05795720E-06
   2.19000001E-02   3.07153232E-06
   2.19500009E-02   3.08384642E-06
   2.19999999E-02   3.09485995E-06
   2.20500007E-02   3.10453288E-06
   2.20999997E-02   3.11282542E-06
   2.21500006E-02   3.11969757E-06
   2.21999995E-02   3.12510838E-06
   2.22500004E-02   3.12901784E-06
   2.22999994E-02   3.13138503E-06
   2.23500002E-02   3.13216924E-06
   2.23999992E-02   3.13132955E-06
   2.24500000E-02   3.12882457E-06
   2.25000009E-02   3.12461384E-06
   2.25499999E-02   3.11865597E-06
   2.26000007E-02   3.11091003E-06
   2.26499997E-02   3.10133464E-06
   2.27000006E-02   3.08988911E-06
   2.27499995E-02   3.07653204E-06
   2.28000004E-02   3.06122251E-06
   2.28499994E-02   3.04391961E-06
   2.29000002E-02   3.02458307E-06
   2.29499992E-02   3.00317197E-06
   2.30000000E-02   2.97964584E-06
   2.30500009E-02   2.95396489E-06
   2.30999999E-02   2.92608911E-06
   2.31500007E-02   2.89597824E-06
   2.31999997E-02   2.86359341E-06
   2.32500006E-02   2.82889550E-06
   2.32999995E-02   2.79184565E-06
   2.33500004E-02   2.75240541E-06
   2.33999994E-02   2.71053682E-06
   2.34500002E-02   2.66620214E-06
   2.34999992E-02   2.61936475E-06
   2.35500000E-02   2.56998737E-06
   2.36000009E-02   2.51803453E-06
   2.36499999E-02   2.46347076E-06
   2.37000007E-02   2.40626059E-06
   2.37499997E-02   2.34636991E-06
   2.38000005E-02   2.28376484E-06
   2.38499995E-02   2.21841265E-06
   2.39000004E-02   2.15028081E-06
   2.39499994E-02   2.07933817E-06
   2.40000002E-02   2.00555314E-06
   2.40499992E-02   1.92889615E-06
   2.41000000E-02   1.84933799E-06
   2.41500009E-02   1.76685057E-06
   2.41999999E-02   1.68140627E-06
   2.42500007E-02   1.59297872E-06
   2.42999997E-02   1.50154244E-06
   2.43500005E-02   1.40707289E-06
   2.43999995E-02   1.30954686E-06
   2.44500004E-02   1.20894174E-06
   2.44999994E-02   1.10523627E-06
   2.45500002E-02   9.98410542E-07
   2.45999992E-02   8.88445470E-07
   2.46500000E-02   7.75323372E-07
   2.47000009E-02   6.59027876E-07
   2.47499999E-02   5.39543578E-07
   2.48000007E-02   4.16856750E-07
   2.48499997E-02   2.90954716E-07
   2.49000005E-02   1.61826279E-07
   2.49499995E-02   2.94617664E-08
   2.50000004E-02  -1.06147112E-07
   2.50499994E-02  -2.45007215E-07
   2.51000002E-02  -3.87123947E-07
   2.51499992E-02  -5.32500962E-07
   2.52000000E-02  -6.81140534E-07
   2.52500009E-02  -8.33043316E-07
   2.52999999E-02  -9.88208058E-07
   2.53500007E-02  -1.14663203E-06
   2.53999997E-02  -1.30831086E-06
   2.54500005E-02  -1.47323851E-06
   2.54999995E-02  -1.64140693E-06
   2.55500004E-02  -1.81280620E-06
   2.55999994E-02  -1.98742509E-06
   2.56500002E-02  -2.16524995E-06
   2.56999992E-02  -2.34626532E-06
   2.57500000E-02  -2.53045437E-06
   2.58000009E-02  -2.71779732E-06
   2.58499999E-02  -2.90827370E-06
   2.59000007E-02  -3.10185942E-06
   2.59499997E-02  -3.29852992E-06
   2.60000005E-02  -3.49825768E-06
   2.60499995E-02  -3.70101361E-06
   2.61000004E-02  -3.90676632E-06
   2.61499994E-02  -4.11548217E-06
   2.62000002E-02  -4.32712477E-06
   2.62499992E-02  -4.54165684E-06
   2.63000000E-02  -4.75903880E-06
   2.63500009E-02  -4.97922701E-06
   2.63999999E-02  -5.20217782E-06
   2.64500007E-02  -5.42784392E-06
   2.64999997E-02  -5.65617620E-06
   2.65500005E-02  -5.88712373E-06
   2.65999995E-02  -6.12063286E-06
   2.66500004E-02  -6.35664674E-06
   2.66999993E-02  -6.59510715E-06
   2.67500002E-02  -6.83595363E-06
   2.67999992E-02  -7.07912204E-06
   2.68500000E-02  -7.32454828E-06
   2.69000009E-02  -7.57216367E-06
   2.69499999E-02  -7.82189818E-06
   2.70000007E-02  -8.07367724E-06
   2.70499997E-02  -8.32742808E-06
   2.71000005E-02  -8.58307249E-06
   2.71499995E-02  -8.84053043E-06
   2.72000004E-02  -9.09971823E-06
   2.72499993E-02  -9.36055130E-06
   2.73000002E-02  -9.62294234E-06
   2.73499992E-02  -9.88680222E-06
   2.74000000E-02  -1.01520363E-05
   2.74500009E-02  -1.04185519E-05
   2.74999999E-02  -1.06862499E-05
   2.75500007E-02  -1.09550319E-05
   2.75999997E-02  -1.12247963E-05
   2.76500005E-02  -1.14954364E-05
   2.76999995E-02  -1.17668469E-05
   2.77500004E-02  -1.20389177E-05
   2.77999993E-02  -1.23115369E-05
   2.78500002E-02  -1.25845909E-05
   2.78999992E-02  -1.28579613E-05
   2.79500000E-02  -1.31315301E-05
   2.80000009E-02  -1.34051761E-05
   2.80499998E-02  -1.36787748E-05
   2.81000007E-02  -1.39521999E-05
   2.81499997E-02  -1.42253230E-05
   2.82000005E-02  -1.44980149E-05
   2.82499995E-02  -1.47701430E-05
   2.83000004E-02  -1.50415699E-05
   2.83499993E-02  -1.53121582E-05
   2.84000002E-02  -1.55817706E-05
   2.84499992E-02  -1.58502626E-05
   2.85000000E-02  -1.61174903E-05
   2.85500009E-02  -1.63833101E-05
   2.85999998E-02  -1.66475729E-05
   2.86500007E-02  -1.69101277E-05
   2.86999997E-02  -1.71708234E-05
   2.87500005E-02  -1.74295055E-05
   2.87999995E-02  -1.76860194E-05
   2.88500004E-02  -1.79402086E-05
   2.88999993E-02  -1.81919131E-05
   2.89500002E-02  -1.84409673E-05
   2.89999992E-02  -1.86872130E-05
   2.90500000E-02  -1.89304828E-05
   2.91000009E-02  -1.91706094E-05
   2.91499998E-02  -1.94074273E-05
   2.92000007E-02  -1.96407673E-05
   2.92499997E-02  -1.98704565E-05
   2.93000005E-02  -2.00963223E-05
   2.93499995E-02  -2.03181935E-05
   2.94000003E-02  -2.05358920E-05
   2.94499993E-02  -2.07492449E-05
   2.95000002E-02  -2.09580721E-05
   2.95499992E-02  -2.11621955E-05
   2.96000000E-02  -2.13614367E-05
   2.96500009E-02  -2.15556138E-05
   2.96999998E-02  -2.17445468E-05
   2.97500007E-02  -2.19280537E-05
   2.97999997E-02  -2.21059490E-05
   2.98500005E-02  -2.22780491E-05
   2.98999995E-02  -2.24441719E-05
   2.99500003E-02  -2.26041302E-05
   2.99999993E-02  -2.27577402E-05
   3.00500002E-02  -2.29048164E-05
   3.00999992E-02  -2.30451715E-05
   3.01500000E-02  -2.31786180E-05
   3.02000009E-02  -2.33049705E-05
   3.02499998E-02  -2.34240415E-05
   3.03000007E-02  -2.35356456E-05
   3.03499997E-02  -2.36395954E-05
   3.04000005E-02  -2.37357071E-05
   3.04499995E-02  -2.38237917E-05
   3.05000003E-02  -2.39036635E-05
   3.05499993E-02  -2.39751371E-05
   3.06000002E-02  -2.40380305E-05
   3.06499992E-02  -2.40921563E-05
   3.07000000E-02  -2.41373364E-05
   3.07500008E-02  -2.41733815E-05
   3.07999998E-02  -2.42001151E-05
   3.08500007E-02  -2.42173573E-05
   3.08999997E-02  -2.42249243E-05
   3.09500005E-02  -2.42226415E-05
   3.09999995E-02  -2.42103324E-05
   3.10500003E-02  -2.41878188E-05
   3.10999993E-02  -2.41549296E-05
   3.11500002E-02  -2.41114903E-05
   3.11999992E-02  -2.40573336E-05
   3.12500000E-02  -2.39922865E-05
   3.13000008E-02  -2.39161855E-05
   3.13500017E-02  -2.38288667E-05
   3.13999988E-02  -2.37301629E-05
   3.14499997E-02  -2.36199176E-05
   3.15000005E-02  -2.34979707E-05
   3.15500014E-02  -2.33641695E-05
   3.15999985E-02  -2.32183593E-05
   3.16499993E-02  -2.30603910E-05
   3.17000002E-02  -2.28901172E-05
   3.17500010E-02  -2.27073942E-05
   3.18000019E-02  -2.25120784E-05
   3.18499990E-02  -2.23040333E-05
   3.18999998E-02  -2.20831243E-05
   3.19500007E-02  -2.18492187E-05
   3.20000015E-02  -2.16021872E-05
   3.20499986E-02  -2.13419062E-05
   3.20999995E-02  -2.10682556E-05
   3.21500003E-02  -2.07811154E-05
   3.22000012E-02  -2.04803764E-05
   3.22499983E-02  -2.01659241E-05
   3.22999991E-02  -1.98376583E-05
   3.23500000E-02  -1.94954755E-05
   3.24000008E-02  -1.91392774E-05
   3.24500017E-02  -1.87689748E-05
   3.24999988E-02  -1.83844786E-05
   3.25499997E-02  -1.79857052E-05
   3.26000005E-02  -1.75725745E-05
   3.26500013E-02  -1.71450174E-05
   3.26999985E-02  -1.67029593E-05
   3.27499993E-02  -1.62463402E-05
   3.28000002E-02  -1.57751019E-05
   3.28500010E-02  -1.52891862E-05
   3.29000019E-02  -1.47885512E-05
   3.29499990E-02  -1.42731515E-05
   3.29999998E-02  -1.37429506E-05
   3.30500007E-02  -1.31979177E-05
   3.31000015E-02  -1.26380255E-05
   3.31499986E-02  -1.20632558E-05
   3.31999995E-02  -1.14735940E-05
   3.32500003E-02  -1.08690310E-05
   3.33000012E-02  -1.02495669E-05
   3.33499983E-02  -9.61520618E-06
   3.33999991E-02  -8.96595793E-06
   3.34500000E-02  -8.30183944E-06
   3.35000008E-02  -7.62287436E-06
   3.35500017E-02  -6.92909225E-06
   3.35999988E-02  -6.22052949E-06
   3.36499996E-02  -5.49722927E-06
   3.37000005E-02  -4.75924162E-06
   3.37500013E-02  -4.00662293E-06
   3.37999985E-02  -3.23943641E-06
   3.38499993E-02  -2.45775323E-06
   3.39000002E-02  -1.66165000E-06
   3.39500010E-02  -8.51211098E-07
   3.40000018E-02  -2.65289355E-08
   3.40499990E-02   8.12297969E-07
   3.40999998E-02   1.66516327E-06
   3.41500007E-02   2.53195412E-06
   3.42000015E-02   3.41254986E-06
   3.42499986E-02   4.30682121E-06
   3.42999995E-02   5.21463335E-06
   3.43500003E-02   6.13584371E-06
   3.44000012E-02   7.07030040E-06
   3.44499983E-02   8.01784608E-06
   3.44999991E-02   8.97831524E-06
   3.45500000E-02   9.95153277E-06
   3.46000008E-02   1.09373177E-05
   3.46500017E-02   1.19354836E-05
   3.46999988E-02   1.29458322E-05
   3.47499996E-02   1.39681579E-05
   3.48000005E-02   1.50022497E-05
   3.48500013E-02   1.60478885E-05
   3.48999985E-02   1.71048468E-05
   3.49499993E-02   1.81728865E-05
   3.50000001E-02   1.92517673E-05
   3.50500010E-02   2.03412346E-05
   3.51000018E-02   2.14410338E-05
   3.51499990E-02   2.25508957E-05
   3.51999998E-02   2.36705437E-05
   3.52500007E-02   2.47997014E-05
   3.53000015E-02   2.59380759E-05
   3.53499986E-02   2.70853634E-05
   3.53999995E-02   2.82412675E-05
   3.54500003E-02   2.94054717E-05
   3.55000012E-02   3.05776521E-05
   3.55499983E-02   3.17574813E-05
   3.55999991E-02   3.29446302E-05
   3.56500000E-02   3.41387458E-05
   3.57000008E-02   3.53394789E-05
   3.57500017E-02   3.65464730E-05
   3.57999988E-02   3.77593606E-05
   3.58499996E-02   3.89777670E-05
   3.59000005E-02   4.02013138E-05
   3.59500013E-02   4.14296119E-05
   3.59999985E-02   4.26622682E-05
   3.60499993E-02   4.38988754E-05
   3.61000001E-02   4.51390260E-05
   3.61500010E-02   4.63823053E-05
   3.62000018E-02   4.76282839E-05
   3.62499990E-02   4.88765363E-05
   3.62999998E-02   5.01266259E-05
   3.63500006E-02   5.13781051E-05
   3.64000015E-02   5.26305266E-05
   3.64499986E-02   5.38834356E-05
   3.64999995E-02   5.51363737E-05
   3.65500003E-02   5.63888607E-05
   3.66000012E-02   5.76404309E-05
   3.66499983E-02   5.88906005E-05
   3.66999991E-02   6.01388820E-05
   3.67500000E-02   6.13847806E-05
   3.68000008E-02   6.26277906E-05
   3.68500017E-02   6.38674173E-05
   3.68999988E-02   6.51031514E-05
   3.69499996E-02   6.63344763E-05
   3.70000005E-02   6.75608753E-05
   3.70500013E-02   6.87818174E-05
   3.70999984E-02   6.99967786E-05
   3.71499993E-02   7.12052279E-05
   3.72000001E-02   7.24066122E-05
   3.72500010E-02   7.36004004E-05
   3.73000018E-02   7.47860540E-05
   3.73499990E-02   7.59629984E-05
   3.73999998E-02   7.71306950E-05
   3.74500006E-02   7.82885763E-05
   3.75000015E-02   7.94360894E-05
   3.75499986E-02   8.05726595E-05
   3.75999995E-02   8.16977263E-05
   3.76500003E-02   8.28107004E-05
   3.77000012E-02   8.39110289E-05
   3.77499983E-02   8.49981225E-05
   3.77999991E-02   8.60714063E-05
   3.78500000E-02   8.71302982E-05
   3.79000008E-02   8.81742162E-05
   3.79500017E-02   8.92025637E-05
   3.79999988E-02   9.02147658E-05
   3.80499996E-02   9.12102187E-05
   3.81000005E-02   9.21883475E-05
   3.81500013E-02   9.31485556E-05
   3.81999984E-02   9.40902537E-05
   3.82499993E-02   9.50128451E-05
   3.83000001E-02   9.59157333E-05
   3.83500010E-02   9.67983360E-05
   3.84000018E-02   9.76600495E-05
   3.84499989E-02   9.85002989E-05
   3.84999998E-02   9.93184876E-05
   3.85500006E-02   1.00114004E-04
   3.86000015E-02   1.00886282E-04
   3.86499986E-02   1.01634723E-04
   3.86999995E-02   1.02358732E-04
   3.87500003E-02   1.03057740E-04
   3.88000011E-02   1.03731152E-04
   3.88499983E-02   1.04378378E-04
   3.88999991E-02   1.04998850E-04
   3.89500000E-02   1.05592000E-04
   3.90000008E-02   1.06157233E-04
   3.90500017E-02   1.06694009E-04
   3.90999988E-02   1.07201740E-04
   3.91499996E-02   1.07679865E-04
   3.92000005E-02   1.08127817E-04
   3.92500013E-02   1.08545057E-04
   3.92999984E-02   1.08931032E-04
   3.93499993E-02   1.09285189E-04
   3.94000001E-02   1.09606990E-04
   3.94500010E-02   1.09895896E-04
   3.95000018E-02   1.10151377E-04
   3.95499989E-02   1.10372908E-04
   3.95999998E-02   1.10559966E-04
   3.96500006E-02   1.10712048E-04
   3.97000015E-02   1.10828645E-04
   3.97499986E-02   1.10909248E-04
   3.97999994E-02   1.10953370E-04
   3.98500003E-02   1.10960536E-04
   3.99000011E-02   1.10930247E-04
   3.99499983E-02   1.10862042E-04
   3.99999991E-02   1.10755456E-04
   4.00500000E-02   1.10610039E-04
   4.01000008E-02   1.10425361E-04
   4.01500016E-02   1.10200948E-04
   4.01999988E-02   1.09936394E-04
   4.02499996E-02   1.09631270E-04
   4.03000005E-02   1.09285182E-04
   4.03500013E-02   1.08897715E-04
   4.03999984E-02   1.08468477E-04
   4.04499993E-02   1.07997104E-04
   4.05000001E-02   1.07483211E-04
   4.05500010E-02   1.06926433E-04
   4.06000018E-02   1.06326421E-04
   4.06499989E-02   1.05682855E-04
   4.06999998E-02   1.04995408E-04
   4.07500006E-02   1.04263745E-04
   4.08000015E-02   1.03487582E-04
   4.08499986E-02   1.02666629E-04
   4.08999994E-02   1.01800586E-04
   4.09500003E-02   1.00889207E-04
   4.10000011E-02   9.99322292E-05
   4.10499983E-02   9.89294131E-05
   4.10999991E-02   9.78805401E-05
   4.11499999E-02   9.67853848E-05
   4.12000008E-02   9.56437434E-05
   4.12500016E-02   9.44554340E-05
   4.12999988E-02   9.32202747E-05
   4.13499996E-02   9.19381200E-05
   4.14000005E-02   9.06088098E-05
   4.14500013E-02   8.92322278E-05
   4.14999984E-02   8.78082428E-05
   4.15499993E-02   8.63367750E-05
   4.16000001E-02   8.48177151E-05
   4.16500010E-02   8.32509977E-05
   4.17000018E-02   8.16365791E-05
   4.17499989E-02   7.99744012E-05
   4.17999998E-02   7.82644493E-05
   4.18500006E-02   7.65067089E-05
   4.19000015E-02   7.47011873E-05
   4.19499986E-02   7.28479135E-05
   4.19999994E-02   7.09469241E-05
   4.20500003E-02   6.89982844E-05
   4.21000011E-02   6.70020454E-05
   4.21499982E-02   6.49583089E-05
   4.21999991E-02   6.28671696E-05
   4.22499999E-02   6.07287657E-05
   4.23000008E-02   5.85432317E-05
   4.23500016E-02   5.63107242E-05
   4.23999988E-02   5.40314104E-05
   4.24499996E-02   5.17054941E-05
   4.25000004E-02   4.93331754E-05
   4.25500013E-02   4.69146762E-05
   4.25999984E-02   4.44502512E-05
   4.26499993E-02   4.19401549E-05
   4.27000001E-02   3.93846676E-05
   4.27500010E-02   3.67840912E-05
   4.28000018E-02   3.41387349E-05